/*--------------------------------*- C++ -*----------------------------------*\
| =========                 |                                                 |
| \\      /  F ield         | OpenFOAM: The Open Source CFD Toolbox           |
|  \\    /   O peration     | Version:  4.0                                   |
|   \\  /    A nd           | Web:      www.OpenFOAM.org                      |
|    \\/     M anipulation  |                                                 |
\*---------------------------------------------------------------------------*/
FoamFile
{
    version     2.0;
    format      ascii;
    class       volScalarField;
    location    "23";
    object      p;
}
// * * * * * * * * * * * * * * * * * * * * * * * * * * * * * * * * * * * * * //

dimensions      [0 2 -2 0 0 0 0];

internalField   nonuniform List<scalar> 
918
(
0.239736
0.912271
0.0120535
0.238897
-0.00467062
0.879945
-0.824447
0.413644
0.219579
-0.415569
-0.306312
0.209474
0.740568
0.506598
-1.44113
-0.0440283
0.369722
-0.6996
0.218806
-0.00402271
0.482048
0.226078
0.229088
0.219472
0.283331
0.498098
0.620705
0.0124154
0.000700142
-0.000819709
-0.00194762
-0.0233848
-0.0221984
0.763307
0.81392
0.836463
0.188929
0.0263711
-0.659859
-0.745826
-0.735864
-0.873239
0.406745
0.411673
-0.483513
0.416929
0.431493
0.207376
0.218881
0.219802
0.221005
0.219897
0.22134
0.134567
-0.422054
-0.461083
-0.40434
-0.411278
-0.197369
-0.356188
-0.387445
-0.271587
-0.219594
0.143881
0.206523
0.203811
0.214456
0.225335
0.851041
0.822052
0.847677
0.764609
0.779483
0.718265
0.690085
0.527349
0.5482
0.491789
0.481198
-1.87078
-2.84012
-0.848131
-0.592486
-9.60251e-05
-0.062008
-0.0720052
0.35879
0.363742
0.367074
0.384544
0.768387
-0.687233
-0.849399
0.218583
0.217547
0.225816
0.226171
0.223326
0.221422
0.000860593
-0.0148577
-0.0120963
0.00525131
-0.00370581
0.465368
0.459178
0.221149
0.217799
0.230921
0.25251
0.242892
-0.0130496
0.290139
0.30841
0.304158
0.480549
0.477917
0.485371
0.595195
0.557643
0.658394
0.681852
0.00735738
0.00313083
-0.0410054
-0.0253357
-0.0315522
0.185261
0.177636
0.20251
0.19201
0.194293
-0.0568816
-0.19102
0.119134
0.145381
-0.566431
-0.645251
-0.751544
-0.773806
-0.891002
0.260702
0.395962
0.398329
-0.490696
-0.421209
-0.561597
-0.334629
-0.408162
0.197758
0.204726
0.199101
0.214577
0.209398
0.211002
0.223184
0.220243
0.221773
0.186922
0.287893
0.0723145
0.0434198
-0.564039
-0.465829
-0.54996
-0.41544
-0.413422
-0.172304
-0.1557
-0.210678
-0.233526
-0.431636
-0.423845
-0.426929
-0.175191
-0.127961
0.13664
0.128206
0.155767
0.16154
0.199584
0.200106
0.202196
0.200884
0.640413
0.662912
0.671256
0.644895
-3.86855
-6.94721
-0.260305
-0.117421
0.000284502
0.00281147
0.00180657
0.00771443
0.00112215
-0.000981134
-0.19858
-0.180674
-0.106626
-0.13166
0.343733
0.347913
0.676914
0.663713
0.6478
0.595986
0.206798
0.209
0.214402
0.209909
-0.0835105
-0.0321677
-0.0525824
0.42985
0.44776
0.444209
-0.0477443
-0.133157
0.0337478
0.0609066
0.329012
0.313309
0.329855
0.366906
0.402278
0.688267
0.706176
0.706511
0.714592
0.759721
0.772696
0.738333
0.16651
0.176036
0.171437
0.205929
0.203362
0.204496
0.199772
0.201297
0.197981
-0.363903
-0.72745
0.225072
0.24131
0.194603
0.205706
0.34016
0.405489
0.378829
0.388496
0.392389
-0.268166
-0.336147
-0.0253781
-0.0520179
0.0855916
0.117159
0.100047
0.611306
0.573201
0.623088
0.596341
0.556892
0.58275
-0.767772
-2.02353
-1.27309
0.245117
0.0521221
0.14176
-0.226682
-0.287627
-0.255459
0.631914
0.723757
0.332925
0.510378
0.564965
0.443896
0.476276
0.530533
0.453589
0.488842
0.524865
0.507923
0.231855
0.226514
0.208862
0.467341
0.516489
-0.15297
-0.199169
-0.263364
-0.148084
-0.09815
-0.128046
0.690358
0.578302
0.654635
0.217394
0.218003
0.00918361
0.0119914
0.222089
0.222304
0.00400585
-0.00623268
0.124874
-1.14333
-0.175616
0.210008
0.200836
0.217469
-0.408516
0.103203
-0.379514
-0.281647
-0.216929
0.207151
0.152407
0.120267
0.00709124
-0.0147703
-0.0211088
-0.516797
0.214895
0.213041
0.217
0.218094
0.218708
0.00691246
0.00530492
0.00402443
-0.00910982
0.00151069
0.00354004
0.18298
0.198049
-0.471595
0.21712
0.219319
0.219126
0.211826
0.217821
0.215653
-0.0163036
-0.0102988
-0.0296081
-0.0567296
0.0581693
0.379863
0.490391
0.340968
0.106705
-0.142198
0.274642
0.343427
0.242239
0.405789
0.382807
0.405353
-0.110483
-0.266418
-0.103288
-0.160601
0.208309
0.206763
0.199137
0.196222
0.2125
0.210612
0.215015
0.211872
0.214798
0.216242
-0.348385
-0.39163
-0.393437
-0.456235
0.0583631
0.317406
-0.00654281
0.0427355
-0.12779
-0.370463
-0.286862
-0.440071
-0.44602
-0.602835
-0.245465
-0.320582
-0.308839
-0.154625
-0.297502
-0.502377
-0.344113
-0.381529
0.201593
0.199812
0.207594
0.214121
0.160887
0.164112
0.135354
0.151954
0.138386
0.0862827
0.11876
0.0969044
0.00307757
0.0104333
0.0042676
-0.0231285
-0.0592648
-0.00150314
0.0117655
0.0196911
-0.00336459
-0.00480769
-0.026825
-0.0313885
-0.477763
-0.594934
0.65801
0.619499
-0.202214
0.20394
0.210461
0.207029
0.212146
0.215108
0.215954
0.213776
0.210454
0.199121
0.201207
0.196817
0.197477
-0.409605
-0.552689
-0.376966
-0.436244
-0.18764
0.321415
0.0702624
-0.00111742
0.00198126
0.217552
0.635905
0.414196
0.42745
0.4677
-0.671841
-0.277123
-0.601425
-0.00705488
-0.191934
0.375548
0.429062
0.454129
0.397328
0.346896
-0.568976
0.213464
-0.352785
-0.310235
-0.11446
-0.216535
0.428006
0.366764
0.375421
0.393742
0.416744
0.370138
0.34873
0.347525
0.387116
0.391922
0.18636
-0.0224358
-0.0794844
-0.108501
0.354567
0.227256
0.279807
0.197645
0.202991
0.205911
0.204388
0.187805
0.194749
0.190636
0.196129
0.198584
0.208382
0.208869
0.204026
0.206413
-0.393115
-0.394652
-0.335491
-0.439303
-0.425333
-0.494217
-0.372611
-0.220861
-0.231232
-0.0734163
0.00973286
-0.262378
-0.373828
-0.344865
-0.324108
-0.135969
-0.0806633
-0.241832
-0.129535
-0.135288
-0.168135
-0.0186214
-0.0391406
-0.538382
-0.576151
-0.505798
-0.493221
-0.27856
-0.217973
-0.183691
-0.298311
-0.504817
-0.245732
-0.161204
-0.440529
-0.527637
-0.517647
-0.38721
-0.0136639
-0.0239539
-0.0470402
-0.161317
-0.119835
-0.198404
0.197289
0.198198
0.198029
0.211425
0.222818
0.238517
0.204252
0.18088
0.173679
0.176111
0.151493
0.160367
0.156511
0.168207
0.187336
0.193934
0.194387
0.196364
0.180997
0.181565
0.170688
0.174041
0.153461
0.135633
0.124787
-0.00874517
0.00111114
-0.00455978
-0.0247117
0.00482827
-0.00412643
-0.12669
-0.0429981
-0.0683136
-0.0689637
-0.145114
0.0168883
0.00343765
-0.386673
-0.30899
-0.49805
-0.529866
-0.60473
0.568291
0.664993
0.510001
0.290093
0.291114
0.511543
0.609374
0.272043
0.419663
0.45963
0.230227
0.484957
0.209087
0.208503
0.206028
0.205428
0.206991
-0.322544
-0.220162
-0.213635
-0.154058
-0.0443879
0.0792034
-0.0358454
-0.160332
-0.015643
-0.0135135
0.314869
0.331914
0.276556
0.302494
0.302095
0.129664
0.203752
0.258463
0.21587
0.257256
0.276665
0.240533
0.267886
0.219148
0.17608
0.177695
0.124619
0.137058
0.117035
0.101153
0.199007
0.17699
0.186685
0.179295
0.199764
0.226938
0.220695
0.247158
0.260027
0.18622
0.148743
0.155188
0.184965
0.147676
0.16042
0.173431
-0.105298
-0.170428
-0.138771
-0.425338
-0.332846
-0.409197
-0.441278
-0.328811
-0.0324178
-0.784053
-0.83521
-1.39693
0.151176
0.687945
0.386766
0.330284
0.415602
0.38883
0.390092
0.431019
0.433158
0.343848
0.363224
0.368516
0.31147
0.334615
0.370641
0.365092
0.200774
0.0683447
0.0573552
0.0257426
-0.0900914
-0.0566064
0.143641
0.0596875
-0.0118348
0.00506863
0.166667
0.0652245
0.125471
0.153732
0.0749676
0.0503326
0.239922
0.310351
0.299827
0.27461
0.193617
0.203104
0.233141
0.267213
0.291078
0.32876
0.195735
0.201163
0.202415
0.200383
0.197698
0.200354
0.200154
0.202803
0.203836
0.206721
0.205609
-0.471787
-0.498423
-0.40419
-0.436454
-0.340704
-0.321308
-0.247288
-0.281167
-0.425855
-0.382797
-0.369386
-0.386119
-0.405646
-0.417224
-0.175471
-0.1675
-0.194808
-0.2373
-0.0594147
0.0737033
0.130242
0.0235943
-0.0783458
-0.0443526
-0.0296996
-0.415532
-0.391088
-0.519292
-0.352465
-0.314615
-0.410843
-0.319341
-0.328353
-0.502018
-0.462591
-0.22204
-0.0540487
-0.0873047
-0.132407
-0.109339
-0.0715044
0.18361
0.17831
0.177807
0.173311
0.172453
0.183864
0.18798
0.19042
0.195571
0.196526
0.187945
0.191862
0.195388
-0.0729453
0.00440247
-0.010676
-0.0606336
-0.0179073
0.00253582
-0.0189286
-0.193737
-0.26222
-0.263088
-0.313731
-0.436177
-0.381087
0.154615
0.137779
0.180591
0.363272
0.223789
0.146483
0.223709
0.322136
-0.0504596
0.138805
-0.0304466
0.542466
0.429592
0.569554
0.203571
-0.0972665
0.0550878
0.117741
-0.100867
-0.0210527
0.000850299
-0.0962639
-0.0680437
-0.0494769
0.0543356
-0.0553421
-0.0798416
-0.334556
-0.148912
-0.00656952
-0.0221729
0.101254
0.168239
-0.0928194
-0.15669
-0.182462
0.305212
0.326224
0.347476
0.313941
0.339774
0.262145
0.253106
0.272455
0.282199
0.27589
-1.1199
-0.839802
-1.74363
-1.03423
-0.602081
0.18166
0.139187
0.432162
0.322368
0.39861
0.380467
0.348903
0.308656
0.317307
0.355484
0.0620319
0.163752
0.139835
0.147935
0.0456113
-0.00845303
0.281009
0.272891
0.312222
0.334193
0.302111
0.3375
0.19386
0.193495
0.192399
0.189602
0.187935
0.189961
-0.259831
-0.332597
-0.233731
-0.247535
-0.275212
-0.32184
-0.0969686
-0.106857
-0.0860213
-0.0833519
-0.0453197
-0.104478
-0.180984
-0.235553
-0.293973
-0.267836
-0.32859
-0.392094
-0.415599
-0.312657
-0.228314
-0.220928
0.0831002
0.31801
0.148657
0.309922
0.177739
0.210512
0.183313
0.177034
0.216358
0.0704632
0.13888
-0.0708804
-0.600431
-0.481954
0.407243
0.477468
0.25342
0.112465
-0.174776
-0.0312387
0.231275
0.161891
0.205895
0.276038
0.26819
-0.331037
-0.291067
0.00910516
0.210341
-0.0929655
-0.157051
-0.144278
0.0126554
-0.0324749
)
;

boundaryField
{
    wall-4
    {
        type            zeroGradient;
    }
    velocity-inlet-5
    {
        type            zeroGradient;
    }
    velocity-inlet-6
    {
        type            zeroGradient;
    }
    pressure-outlet-7
    {
        type            fixedValue;
        value           uniform 0;
    }
    wall-8
    {
        type            zeroGradient;
    }
    frontAndBackPlanes
    {
        type            empty;
    }
}


// ************************************************************************* //
