/*--------------------------------*- C++ -*----------------------------------*\
| =========                 |                                                 |
| \\      /  F ield         | OpenFOAM: The Open Source CFD Toolbox           |
|  \\    /   O peration     | Version:  4.0                                   |
|   \\  /    A nd           | Web:      www.OpenFOAM.org                      |
|    \\/     M anipulation  |                                                 |
\*---------------------------------------------------------------------------*/
FoamFile
{
    version     2.0;
    format      ascii;
    class       surfaceScalarField;
    location    "23";
    object      phi;
}
// * * * * * * * * * * * * * * * * * * * * * * * * * * * * * * * * * * * * * //

dimensions      [0 3 -1 0 0 0 0];

internalField   nonuniform List<scalar> 
1300
(
3.75095
5.62643
-5.84387
3.75095
-5.78417
5.62643
-4.56142
4.56142
-1.18497
1.18497
1.87653
1.87443
-3.01069
3.01069
-2.72747
2.72747
-2.58321
2.58321
-5.24642
5.24642
-5.06859
5.06859
4.67311
-4.67311
-4.6231
4.6231
-1.63593
1.63593
-4.00681
4.00681
3.16941
-3.16941
-4.35625
4.35625
-0.399124
0.399124
-0.553041
4.30399
3.19791
3.19791
-2.28564
2.28564
-4.85724
4.85724
6.2177
-6.2177
8.84756
-8.84756
-3.0037
-3.42319
1.36084
-8.38695
-4.42333
-4.42333
-8.44022
8.44022
-2.81379
2.81264
2.94196
-2.94196
-1.85099
1.85099
-4.4656
-0.0958143
-4.4656
4.5812
-0.0197827
4.5812
-1.31735
0.132386
-1.31735
4.02329
-4.02329
1.01681
0.168163
1.01681
3.06472
-3.06472
-1.87714
3.75367
1.87381
-1.87166
6.17565
-1.87929
3.75372
-5.82474
5.82474
-3.23663
0.225942
-3.23663
2.70499
0.305694
2.70499
-5.68851
5.68851
-2.34734
-0.380131
-2.34734
3.16946
-0.441992
3.16946
2.83937
-2.83937
-2.64401
0.0608033
-2.64401
2.53122
0.0519814
2.53122
0.353707
5.27272
-5.98014
8.79277
-5.27272
0.0263035
5.20833
0.0380847
5.20833
-5.10606
0.0374697
-5.10606
5.01076
0.0578298
5.01076
4.75453
-0.0814249
4.75453
-4.79372
0.120614
-4.79372
-3.30501
-3.61065
-4.66454
0.041438
-4.66454
-1.64811
0.012186
-1.64811
1.61008
0.0258513
1.61008
-3.47025
3.47025
-4.37386
0.367045
-4.37386
3.12349
0.0459129
3.12349
1.86903
1.88192
5.61999
-5.61999
2.45058
-4.17779
-0.178456
-4.17779
-4.52061
-4.32696
4.52061
-0.164361
-0.675835
0.276711
-0.675835
3.16021
0.0377028
3.16021
2.4535
0.077726
-2.4535
0.167861
3.29174
-3.29174
1.66164
0.623995
1.66164
-5.56971
5.56971
4.95089
0.0598741
-4.95089
0.0936471
6.15713
0.0605653
6.15713
-6.19989
-0.0178123
-6.19989
3.26867
-6.69186
-3.50702
4.52159
0.101506
-4.52159
0.0982612
2.91088
0.0310761
2.91088
-2.9196
2.9196
-2.98236
0.0404034
-2.98236
-2.24556
0.394578
-2.24556
1.55089
0.300092
1.55089
-4.32331
-0.142288
-4.32331
-4.51065
0.136797
4.51065
0.0705453
1.0218
-1.0218
-1.45904
0.141685
-1.45904
-4.16523
-0.158089
4.16523
-0.141932
-3.88624
-0.137055
-3.88624
-3.02314
0.0407854
3.02314
0.0415762
3.11294
0.0472682
-3.11294
0.0482205
-1.8709
3.75282
-1.88006
3.75387
-5.43153
-0.393211
-5.43153
6.12556
-0.300823
6.12556
3.62528
0.381534
-3.62528
0.38865
2.48701
0.217985
2.48701
-6.11191
0.423404
-6.11191
5.20312
0.48539
5.20312
2.31235
0.174658
-2.31235
-0.0349862
3.56643
-0.396969
3.56643
2.87733
-0.0379584
2.87733
-2.8388
-0.000566115
-2.8388
2.79363
-2.79363
2.71672
0.0769147
-2.71672
0.0727088
-11.1325
11.1147
-0.0350265
-11.0975
5.17331
5.17331
4.17077
0.583757
4.17077
-5.00679
0.213073
-5.00679
3.23428
-6.7413
3.57151
-6.87652
3.5713
-11.9583
3.36386
-6.97451
4.74549
-4.74549
4.6723
0.0731905
-4.6723
0.00776653
-1.66496
0.0168507
-1.66496
-2.84918
-0.621075
-2.84918
4.12357
-0.653315
4.12357
-3.02917
3.02917
-3.07754
0.0483646
3.07754
0.0459581
3.92811
-0.361678
-3.92811
-0.249685
0.857839
0.158966
-0.857839
0.182004
3.49728
-0.205539
3.49728
-3.09521
-0.196536
-3.09521
-1.67057
0.00560248
1.67057
-0.00892531
-5.81728
0.247572
-5.81728
-11.1909
0.0933591
-11.1528
-6.10653
-6.10653
2.3337
11.1265
-2.87592
0.0371231
2.87592
0.0349556
2.97596
0.0532083
-2.97596
0.0563642
-2.86035
0.0667161
2.86035
0.0592504
-2.63758
0.392015
-2.63758
-1.14221
1.14221
-1.33146
0.189252
1.33146
0.219431
1.25672
-0.234921
1.25672
1.55985
0.0502234
-1.55985
0.100814
-3.78631
-0.0999315
-3.78631
6.30953
-0.183974
6.30953
-2.96179
-0.13342
2.96179
-0.0844642
-0.0333641
11.1481
-5.13994
0.0338797
5.13994
-11.2086
11.2425
-3.27169
0.634109
3.27169
0.899084
5.29413
0.275573
-5.29413
0.28734
4.93969
0.263433
-4.93969
0.194192
-2.36271
-0.486473
-2.36271
-4.86688
-0.564645
4.86688
-0.743313
-11.4734
-0.204313
11.6777
-11.4155
6.02159
0.135541
-6.02159
11.3781
-1.01374
-0.00805174
1.01374
0.128467
1.53378
-0.277064
1.53378
3.68029
-0.183007
-3.68029
-0.106016
-6.32352
0.211608
6.32352
-0.013988
-1.92534
-0.437361
1.92534
-0.391564
-4.26651
4.30421
1.90915
-3.15118
-3.54068
-7.47813
1.85165
1.90116
4.30223
-7.48265
-4.4756
-7.38439
7.26911
-6.98177
-9.30334
9.22192
7.50421
-7.64126
-5.78705
5.83301
6.48159
-6.44001
1.87864
1.87503
7.83554
-7.6096
-15.5771
15.1839
5.81897
-6.1991
16.4179
-15.9945
-17.1493
17.4128
-5.76677
5.82757
-6.66382
6.66325
-6.85245
6.76799
-3.02549
-3.85103
10.0988
-10.0574
10.763
-10.9415
-8.48062
8.84767
3.38178
0.922431
3.42905
-1.88249
3.76114
-1.87123
3.78037
3.59899
-6.62448
3.14231
-6.68299
5.83596
4.92705
-5.6716
-1.80654
-5.91476
5.94584
-5.82929
5.88854
8.91006
-9.00587
-1.88527
3.7603
-1.86859
3.76976
-3.42642
-2.36064
3.3805
0.921727
6.06352
4.03529
-6.16502
-1.21937
-7.76981
7.5868
-8.02138
7.82484
-0.44588
5.81845
-5.37257
4.41136
-1.54535
7.3638
5.72377
5.93684
5.86669
-5.59112
1.11508
-6.48765
-6.39401
-2.55073
2.69241
2.53308
-2.36492
5.89879
1.60541
5.75686
-5.53705
-2.10421
-5.63698
3.82217
2.01084
3.87053
4.07596
2.40563
4.11675
3.03101
-3.03477
0.00375876
-3.05638
6.08739
0.725534
-5.41702
-4.49529
4.62938
3.20616
4.93507
-5.47028
-2.13931
-5.08163
-9.47152
-6.10562
-10.0362
10.0468
5.13713
9.74598
-11.9552
11.9412
4.35905
1.45992
3.91706
-3.60599
-2.59312
-3.64097
13.2737
-2.61074
-10.663
-10.4617
-6.68768
9.97628
6.4416
9.8523
7.56049
10.0465
4.15115
9.1226
-10.5927
3.90507
-3.87805
-1.88872
-3.80534
3.7436
2.08397
3.79558
-4.19428
-2.46954
-4.15715
-4.21674
-2.63571
4.2547
2.40855
-4.30415
-3.71723
4.43757
2.33042
3.40534
-7.88095
3.56917
-7.4202
-7.32507
-2.7323
-7.3173
4.55472
2.09487
-6.64959
-2.06976
10.5593
-5.63224
8.75276
-6.16066
-4.78081
-6.41034
-6.80213
-1.6785
-6.66533
-8.78485
8.29837
-9.11691
8.4636
12.7286
-5.72582
-7.00279
-3.96812
-2.47189
3.9199
-0.490852
-3.71189
3.71565
0.0492476
3.82962
4.75205
4.2612
-3.88892
-1.94037
-3.83256
3.83789
2.05065
3.90461
6.75013
2.15992
6.73035
-6.40399
-2.60188
-6.54628
9.06636
-8.67178
2.96678
-2.96117
5.24
2.58485
-5.03446
-2.73535
6.06509
-3.044
-3.0211
-12.2107
10.5965
1.61425
-4.84693
-0.435563
-0.0364383
-5.50756
-3.79578
5.38695
0.549893
11.1464
7.35058
-5.51287
5.76044
6.16481
6.22468
-0.169326
5.79908
-5.16497
5.32555
-2.36244
-2.96311
5.26738
-5.42547
-1.2789
-5.20013
3.92123
0.331394
1.8006
-1.52389
-2.04907
-0.501656
-1.94826
1.53325
0.999825
1.69222
0.987438
1.70497
-2.93128
0.527556
2.40373
-1.94384
-1.83736
-3.63382
-1.04961
4.68343
5.57605
2.01075
-5.47004
-0.166948
2.7258
-2.69995
-0.757375
-2.87644
2.13432
-2.8917
-3.53753
-1.89882
5.43636
-3.37123
-0.461334
3.31802
0.552516
-3.82347
-2.09129
3.78307
0.333681
-3.1221
6.18665
-3.06456
-5.06247
2.52916
3.55823
4.54001
-4.78933
2.44476
2.34457
-1.2311
3.53339
1.40168
3.75138
-6.89016
4.75085
5.69473
3.15293
-6.07627
0.994633
-5.89553
8.42623
-7.19031
-1.23591
4.02832
4.39791
7.20998
5.51863
-5.76286
12.9728
-1.06093
-6.12939
6.95646
-3.80352
4.77671
-8.58024
-10.2953
4.16596
-9.31029
11.523
-2.21273
-3.58775
-8.36745
12.898
-1.19455
-11.7035
8.55143
-4.98645
-3.60032
8.58677
-7.59719
6.19344
-1.64978
-4.54366
-10.3918
-5.60267
10.1802
1.76103
-9.57841
13.4835
-0.455813
4.19949
-0.282428
3.80252
3.41941
-6.40105
2.98164
4.17778
-5.82756
1.34463
-7.74568
-5.84087
10.3904
-4.54948
-8.57317
-8.60254
0.0293637
1.3277
12.1558
-8.88819
5.80016
3.08802
3.31136
0.593249
-3.38828
-0.417067
0.341985
4.52288
-4.86486
4.13756
4.21529
3.41776
1.10512
3.82743
2.11841
-3.86238
-0.29477
-4.12538
1.48968
-1.71683
-3.65442
5.1441
-4.08522
0.430799
-2.73185
-3.56033
6.29218
-4.62056
3.04159
3.14506
5.09224
-4.94673
1.3864
-2.44088
-2.50585
2.69882
-4.41565
1.96406
3.18003
4.29448
0.57725
5.54782
4.84254
-7.64269
0.222488
8.87783
-7.65846
2.7697
7.27678
-8.56987
-0.032669
-7.34997
0.492565
-6.12481
-6.15702
5.07585
-6.75434
-3.50439
6.15194
0.578407
-6.22249
-0.442842
-5.95801
-2.82684
-6.39537
-3.06272
-6.05419
-8.82558
-1.62311
-7.20247
6.67526
-6.61404
-3.42212
7.35735
1.10625
-7.3433
7.33525
-7.39794
7.12087
0.0946453
3.621
4.35585
1.88395
-2.3899
4.27385
-5.02077
7.1807
-8.3738
3.35302
3.88576
-6.48763
-4.48804
5.03272
4.03364
5.33281
8.96368
-10.5477
1.58406
-10.9026
12.1477
-1.24511
-16.6489
5.74625
-7.68518
2.70856
0.258217
2.72541
0.674996
2.41081
-3.08581
-2.28618
-2.2951
-2.28367
-3.32629
5.60996
1.10748
-3.33957
2.23209
-3.4574
4.56488
-0.0694555
-3.27011
5.22873
-2.81792
5.48694
-3.52685
1.96009
3.24718
5.55377
-2.3066
4.26562
-1.68077
1.79602
-4.10262
-1.53027
-3.02346
5.10743
-3.26872
3.69952
-0.242572
3.94209
-4.02851
0.984514
-0.610751
3.60454
3.7724
4.21307
-3.10795
2.91065
-4.59142
-1.19197
-4.01417
-0.834136
-0.31469
-3.76342
4.07811
6.09106
-6.40575
-5.26068
9.58157
-4.32088
7.74136
-5.41237
-2.32899
-4.26189
-4.40989
3.86987
1.92921
9.67057
0.228466
-5.64084
-4.93651
-4.03742
3.23264
2.09292
-2.02935
3.6436
2.06579
-0.265188
0.56768
1.12454
1.90868
-1.341
0.217346
1.69133
-1.30654
2.00954
0.716261
-2.05976
0.111505
-1.34715
3.48147
1.05657
-2.0564
0.7154
1.04979
-3.41223
4.74676
-2.44544
-2.30131
5.79655
1.12907
-3.57451
4.07106
-3.73967
2.28397
-3.33357
-1.29055
-5.03022
-3.4248
-2.46888
4.70096
-3.14108
5.15183
1.16343
-4.98488
6.14831
-3.52067
1.62185
-3.04194
3.7582
-1.0442
-1.99774
2.74902
2.68733
-2.90338
0.0269416
-0.15436
2.29935
-2.45371
-0.592348
-2.53619
-4.57162
4.9053
-2.10786
4.55262
2.16599
-1.91329
6.46591
1.81354
-3.72684
-3.24892
-3.71026
-1.38227
3.15774
-0.339695
-3.30128
-4.88335
3.12662
0.624757
-7.01063
7.33984
-0.329206
-3.80447
-0.946375
4.97469
-5.73474
-0.09282
-4.3901
2.94973
4.35142
4.97617
-11.3977
-0.305778
-6.26059
1.2208
-7.48138
5.61871
-3.62502
7.79098
-10.4541
7.03194
-9.34782
6.55507
-0.926319
7.24647
-4.26484
3.41654
-9.01921
-7.25818
5.13388
-3.67397
4.85145
-4.457
9.30845
-4.91281
6.53676
2.77169
-1.96337
-4.44697
-5.53063
3.56726
1.00613
4.80865
4.95877
-2.84036
4.664
2.2212
-4.66207
-2.19446
-6.52006
1.85799
-3.375
-1.91448
3.77247
3.17776
3.77101
1.26662
-3.35395
8.03708
-8.00771
-3.4876
-2.66943
6.1477
-2.58044
4.75791
-7.42734
-1.3669
4.91056
-0.898201
-4.01236
0.815259
-4.31965
1.65079
-5.97044
5.10355
-5.54639
2.15474
-9.83992
-5.18856
-5.06009
-2.21713
-5.18081
-7.66577
5.44864
-1.91952
5.41573
-8.67891
7.78071
-3.46881
8.91745
-5.3729
-1.02247
5.76447
1.3564
10.2739
0.127603
-4.61564
-1.84714
3.98001
-2.13287
1.3855
-3.63582
0.344188
2.43617
3.36038
-6.3574
-0.130236
-4.74588
-3.92033
7.95396
5.66124
11.7523
1.20456
9.15491
-1.20095
10.3595
4.13187
4.3513
-3.00437
4.58842
1.07374
4.42677
-0.857443
2.81753
1.86797
1.88015
0.819793
2.29957
1.47283
3.28408
0.198278
-2.09683
4.6456
-8.68302
-0.995241
-8.09926
1.12265
5.84245
-4.7198
3.17249
-1.07958
1.03962
0.148431
-1.77822
1.62979
-2.81468
-2.04341
-0.352076
-1.63841
2.35381
1.84306
-2.00173
-0.812949
0.31697
-3.74177
3.0166
-2.98966
-0.302329
5.84598
-2.7058
0.252091
-1.08395
-2.2841
-2.78576
2.67425
6.17392
0.291993
3.10936
5.19729
3.106
0.265643
3.63666
-5.84939
-4.10902
-6.15517
-0.536466
4.43823
3.83972
8.31606
6.61141
4.03097
-3.39637
-11.4041
6.49492
-1.9065
5.24982
-1.23746
-4.73298
4.94897
2.23173
-5.52738
-0.0190142
-4.752
-6.65849
-0.590567
8.37127
-9.68329
8.66082
5.83399
1.36848
-4.3767
-0.683394
4.18745
0.163851
10.5233
-1.18374
-6.82459
8.00834
-4.65871
3.66347
0.841761
2.80184
2.47155
1.39197
-5.43262
-10.1524
-1.89672
-1.51551
-4.19803
0.485398
-2.32846
6.29646
-2.63299
3.96747
5.37534
6.41497
-2.1819
-4.22384
6.50279
-2.53531
3.87966
)
;

boundaryField
{
    wall-4
    {
        type            calculated;
        value           uniform 0;
    }
    velocity-inlet-5
    {
        type            calculated;
        value           uniform -3.75095;
    }
    velocity-inlet-6
    {
        type            calculated;
        value           uniform -5.62643;
    }
    pressure-outlet-7
    {
        type            calculated;
        value           nonuniform List<scalar> 8(5.84387 5.78417 6.42689 7.02612 6.91566 6.77569 6.80579 6.93516);
    }
    wall-8
    {
        type            calculated;
        value           uniform 0;
    }
    frontAndBackPlanes
    {
        type            empty;
        value           nonuniform 0();
    }
}


// ************************************************************************* //
