/*--------------------------------*- C++ -*----------------------------------*\
| =========                 |                                                 |
| \\      /  F ield         | OpenFOAM: The Open Source CFD Toolbox           |
|  \\    /   O peration     | Version:  4.0                                   |
|   \\  /    A nd           | Web:      www.OpenFOAM.org                      |
|    \\/     M anipulation  |                                                 |
\*---------------------------------------------------------------------------*/
FoamFile
{
    version     2.0;
    format      ascii;
    class       volVectorField;
    location    "23";
    object      U;
}
// * * * * * * * * * * * * * * * * * * * * * * * * * * * * * * * * * * * * * //

dimensions      [0 1 -1 0 0 0 0];

internalField   nonuniform List<vector> 
918
(
(0.985074 -0.000599979 0)
(0.00477011 2.96626 0)
(-0.0145035 1.54674 0)
(0.979827 0.00241492 0)
(-0.00181064 1.5367 8.3106e-21)
(-0.0070454 2.94891 -8.10115e-19)
(0.850589 1.20971 2.98644e-19)
(0.394837 0.185699 -3.66332e-21)
(0.999905 -0.000308595 0)
(0.0614632 0.880321 0)
(-0.0620759 0.78606 0)
(0.741418 -0.0115886 0)
(0.0115253 2.93015 0)
(0.00203727 2.79514 0)
(-0.0191198 3.16151 4.73543e-19)
(0.00225017 1.40637 1.99199e-20)
(0.508826 0.0815177 2.29798e-19)
(0.17459 1.24107 2.56782e-19)
(0.962239 0.0038738 0)
(-0.000419122 1.25082 0)
(0.126997 0.229558 -1.93193e-19)
(1.00222 -0.00520742 0)
(1.00076 -0.0101201 0)
(0.97602 -0.00650612 0)
(0.650741 -0.0347611 0)
(0.0189951 2.63208 0)
(-0.0150917 2.91031 2.66274e-19)
(-0.0231645 1.56605 0)
(-0.0339855 1.71477 0)
(-0.0229828 1.55857 0)
(-0.00211047 1.87654 0)
(0.00914631 1.56591 -6.44512e-21)
(0.000506285 1.42245 0)
(-0.0204498 2.9875 -2.83221e-23)
(-0.0169896 3.0054 6.43532e-19)
(0.00201366 3.00016 0)
(0.869753 -0.00966376 0)
(0.429956 0.969739 -7.90913e-21)
(0.820455 1.22906 -4.06165e-19)
(0.966747 1.05948 3.85497e-19)
(0.688785 1.33024 -6.90436e-20)
(0.691951 1.31832 3.90051e-19)
(0.432296 0.275684 3.57201e-21)
(0.422973 0.173629 0)
(1.15913 0.583543 0)
(0.400295 0.282871 1.66939e-20)
(0.345206 0.180913 -1.73343e-20)
(0.919472 -0.00729928 0)
(1.0003 0.000148927 0)
(0.999912 0.000346124 0)
(1.00345 -0.00768963 0)
(1.00096 -0.000998311 0)
(1.00019 4.43108e-06 0)
(0.060586 1.77872 -1.03327e-19)
(0.0114782 0.998951 0)
(0.0898049 0.959812 0)
(0.036077 0.918792 0)
(0.0141187 0.782817 0)
(-0.10679 1.67569 0)
(-0.0575131 0.829768 0)
(-0.0240827 0.663334 0)
(-0.0595036 0.95971 0)
(-0.0507596 0.924649 0)
(0.829209 -0.00827924 0)
(0.852256 0.0151815 0)
(0.761727 0.00156075 0)
(0.841136 0.0167424 0)
(0.728829 -0.0139894 0)
(0.0153458 3.00065 2.90432e-19)
(0.0116956 3.00834 0)
(0.00649708 3.00259 0)
(0.0141566 2.99719 3.2028e-24)
(0.00837918 2.9585 -4.38898e-19)
(0.0152125 2.98191 0)
(0.011236 2.90366 0)
(0.0253401 2.93024 5.60749e-25)
(0.00480175 2.8254 0)
(0.0322159 2.91566 0)
(-0.00583174 2.74443 0)
(0.307416 3.55858 0)
(-0.145887 3.63648 0)
(0.137811 3.25401 -4.37107e-19)
(-0.00969496 2.99047 0)
(-0.0381597 1.84443 0)
(0.0315802 1.5851 -1.96449e-20)
(0.00839056 1.38329 3.26261e-20)
(0.574368 0.159728 -7.92604e-20)
(0.50864 0.0598374 -7.70276e-20)
(0.559757 0.180794 -2.38592e-19)
(0.497459 0.108208 -1.60975e-19)
(0.182372 0.881626 0)
(0.251437 1.38025 -2.63741e-19)
(0.374917 1.34201 4.36778e-19)
(0.98755 0.00826003 0)
(0.941599 0.00553026 0)
(1.00031 0.00042923 0)
(1.00325 0.00948921 0)
(1.00285 0.00784138 -4.54678e-19)
(0.991801 0.00986938 3.47035e-19)
(-0.0200382 1.39639 0)
(-0.0197306 1.21315 0)
(-0.0343167 1.57334 0)
(-0.0234138 1.46414 0)
(0.00069819 1.29948 0)
(0.19227 0.241751 5.96699e-20)
(0.236592 0.221583 0)
(0.993372 -0.00816135 0)
(0.954521 -0.00600302 0)
(0.810748 0.0246617 0)
(0.779524 0.0377752 0)
(0.709018 -0.0279717 0)
(0.979719 -0.000994514 0)
(0.717483 0.0588697 0)
(0.562803 -0.0114941 3.07052e-19)
(-0.0354904 2.8654 1.3436e-19)
(0.0431899 2.90806 0)
(0.0570909 2.88319 0)
(-0.00554136 2.69674 0)
(-0.0134252 2.98515 2.43604e-19)
(-0.018327 2.89541 0)
(-0.0158788 2.98803 -7.74376e-19)
(-0.0132031 2.92539 2.68672e-19)
(-0.0384 1.79947 0)
(-0.0342227 1.80576 0)
(0.0149883 1.56922 4.23118e-22)
(0.0122598 1.54842 0)
(-0.0065779 1.41552 0)
(0.937059 -0.00743383 0)
(0.855753 -0.00938269 0)
(0.862726 0.00746822 0)
(0.948564 -0.00776774 0)
(0.883105 -0.0080876 0)
(0.540442 1.16578 5.51184e-21)
(0.592486 1.20719 0)
(0.392611 0.917245 2.66615e-21)
(0.332951 0.775841 0)
(0.929699 1.09521 -1.10475e-19)
(1.03969 0.894659 2.28155e-19)
(0.378416 1.42315 0)
(0.543995 1.39672 0)
(0.540183 1.35771 0)
(0.111823 0.170542 -5.61504e-20)
(0.478024 0.261586 0)
(0.461863 0.158213 4.59408e-20)
(1.01521 0.947968 0)
(1.0873 0.796897 0)
(1.10934 0.73978 -2.01496e-19)
(1.13811 0.636875 0)
(1.18649 0.419382 2.47992e-20)
(0.957424 -0.00847392 0)
(0.962119 -0.0103073 0)
(0.901705 -0.00738545 0)
(0.984348 -0.00912653 0)
(0.974692 -0.009418 0)
(0.937386 -0.00590766 0)
(1.00015 0.00215709 0)
(1.00085 0.00138684 0)
(0.99988 0.000914852 0)
(0.0304463 2.01306 6.41872e-20)
(0.101054 1.69451 0)
(0.0101062 2.09108 6.29124e-20)
(0.0471137 1.85144 -2.54213e-20)
(0.13 1.23569 -2.12664e-19)
(0.0589897 1.08655 0)
(0.0928862 1.09298 0)
(0.00410001 0.853431 0)
(0.00870075 0.707037 0)
(-0.089651 1.94443 1.1538e-21)
(-0.0525631 1.82595 0)
(-0.0490917 1.80027 7.74409e-20)
(-0.0921989 1.50041 -1.5737e-19)
(0.0245807 0.788428 0)
(-0.00556981 0.772169 0)
(-0.00734178 0.655297 0)
(-0.0626964 1.09056 0)
(-0.048439 1.04055 0)
(0.925378 0.0138165 0)
(0.845939 -0.0036351 0)
(0.914383 0.00172399 0)
(0.830572 -0.0120559 0)
(0.808285 0.00554062 0)
(0.901871 0.0172803 0)
(0.877919 0.0184814 0)
(0.781536 0.00507042 0)
(0.00412691 3.06422 -2.40571e-21)
(0.0167428 3.05784 0)
(0.0153279 2.96905 0)
(0.00880321 2.87627 0)
(0.967286 3.99888 0)
(1.31295 3.26002 4.9029e-19)
(0.0700675 3.08148 0)
(-0.025017 2.91097 0)
(-0.0477813 1.79715 0)
(-0.0527226 1.83382 0)
(-0.0422385 1.81352 0)
(-0.0197421 1.86563 1.91386e-21)
(-0.0457297 1.85813 0)
(-0.0277754 1.85092 0)
(-0.00253721 1.36202 -1.88106e-20)
(0.0548222 1.58445 -6.64059e-20)
(0.0516074 1.58382 -3.32285e-20)
(0.00856557 1.36227 0)
(0.607798 0.127572 1.16736e-19)
(0.5238 0.027749 -1.13862e-19)
(0.267095 1.51787 0)
(0.229965 0.651322 -8.37648e-20)
(0.171267 1.6163 -2.75708e-19)
(0.208753 1.14142 2.76465e-19)
(0.902322 0.00601541 0)
(0.967506 0.0106167 0)
(0.974653 0.0107679 0)
(0.923551 0.00619662 0)
(-0.0576504 1.22175 0)
(-0.0345615 1.3261 0)
(-0.0399184 1.13857 0)
(0.356626 0.279089 1.53398e-19)
(0.299479 0.260118 -1.87033e-19)
(0.30102 0.203181 0)
(1.10498 0.0862484 -1.13421e-21)
(1.08647 0.0397238 0)
(1.01631 0.0397173 0)
(0.917635 0.00450963 0)
(0.631689 0.0968786 0)
(0.659766 0.0701534 -4.94749e-19)
(0.542533 0.00973687 1.88905e-19)
(0.00949431 2.98187 1.6965e-19)
(-0.0327213 2.86785 1.93852e-20)
(0.00207723 3.04959 -5.20301e-21)
(0.0206824 3.04331 1.94009e-19)
(-0.0153714 2.99628 8.93757e-21)
(-0.0128254 2.94947 -3.62702e-23)
(-0.0175612 3.01152 -1.68685e-19)
(0.0141927 3.0231 1.21344e-19)
(0.00666231 3.03665 -1.93651e-19)
(0.926507 -0.00315847 0)
(0.936357 -0.00351461 0)
(0.840086 -0.00776848 0)
(0.956777 0.0112734 0)
(0.943383 0.0129921 0)
(0.881841 0.0059174 0)
(0.918816 0.0149993 0)
(0.927156 0.0149679 0)
(0.83786 0.00644399 0)
(0.75951 1.43635 1.47021e-19)
(0.803685 1.52975 0)
(0.257691 0.406658 1.28789e-20)
(0.207427 0.639989 1.04014e-19)
(0.303455 0.743924 -5.87519e-20)
(0.260427 0.621688 1.06832e-19)
(0.29583 0.731688 3.13007e-19)
(0.109891 0.206418 8.61178e-20)
(0.538417 0.211911 1.72273e-19)
(0.508415 0.241376 4.32071e-20)
(0.487333 0.139858 8.7246e-20)
(1.17789 0.474595 1.17086e-19)
(1.1924 0.272028 1.22674e-19)
(-0.00799497 2.1254 3.45325e-21)
(-0.0160349 1.91686 0)
(0.968519 0.0314805 0)
(0.93466 0.0195125 0)
(0.874293 -0.00389968 0)
(0.01099 3.07461 0)
(0.0206287 2.94388 3.29452e-19)
(0.0172488 2.95634 0)
(0.00646786 2.85077 -3.28377e-19)
(0.00540132 3.09094 7.58283e-20)
(0.00611706 3.082 0)
(0.889829 1.83551 -1.03131e-19)
(1.27741 2.39117 2.30504e-19)
(0.870217 1.94091 -5.87965e-19)
(0.020912 2.98409 -1.24897e-19)
(0.0371228 3.00681 0)
(-0.0319159 2.88246 0)
(0.0130362 1.66754 -4.13038e-21)
(0.0547037 1.63858 1.81228e-19)
(0.015241 1.42011 -1.06438e-20)
(0.280401 1.33813 2.6926e-19)
(0.186759 0.444622 -1.84173e-19)
(0.0526477 1.94535 1.87533e-19)
(0.152766 1.83909 -2.39727e-19)
(0.149135 1.42054 3.79515e-20)
(0.000756294 3.11884 -4.42795e-19)
(0.0154801 3.1178 4.98367e-19)
(-0.00926876 2.9812 2.09941e-19)
(-0.00372621 2.97827 -1.85197e-19)
(-0.0212875 2.88248 -2.13934e-19)
(0.00784377 3.09957 -5.56304e-19)
(0.0016641 3.1054 5.57444e-19)
(0.232995 0.650109 0)
(0.193855 0.64904 -2.00163e-19)
(0.144751 0.25484 9.00989e-20)
(0.316884 0.84169 2.57666e-19)
(0.163512 0.237871 -3.95604e-19)
(1.18793 0.177045 -2.06501e-20)
(1.19124 0.319688 0)
(1.17414 0.127769 4.76628e-20)
(-0.0558565 2.04583 9.14136e-22)
(-0.0442344 2.10574 0)
(-0.0475718 1.9042 0)
(0.340632 1.21671 -9.80241e-20)
(0.351672 1.03544 -2.08762e-19)
(0.174975 0.321105 3.58787e-19)
(1.00549 -0.0113014 0)
(1.00746 -0.00743079 8.34437e-20)
(-0.0418954 1.77203 0)
(-0.050378 1.77419 0)
(1.002 0.00344765 8.04308e-22)
(1.00371 0.00991057 1.7038e-19)
(-0.0239862 1.88288 -2.54155e-21)
(-0.0153421 1.89287 0)
(0.0381267 3.18275 5.01895e-20)
(0.392376 3.49255 0)
(1.13474 0.635051 2.49489e-20)
(1.01346 0.0134421 -7.52211e-22)
(1.02068 -0.0110094 0)
(1.00175 1.90505e-05 2.56944e-23)
(0.139112 1.33448 0)
(0.158095 2.56114 0)
(-0.174947 1.04599 0)
(-0.170311 2.68016 -1.0332e-19)
(-0.242696 2.47779 -5.67588e-20)
(1.00866 0.0191203 1.26571e-21)
(1.05383 -0.00263443 0)
(1.07683 0.030454 0)
(-0.0609836 1.83073 0)
(-0.0299683 1.99042 0)
(-0.111118 1.66052 0)
(0.30395 1.45816 -1.75355e-19)
(1.01116 -0.00990671 0)
(1.00935 -0.0156117 0)
(1.00253 0.000496705 1.05739e-19)
(1.00537 -0.00487921 -1.25811e-19)
(1.00125 -0.00108853 0)
(-0.0795988 1.80576 0)
(-0.0571985 1.7691 0)
(-0.0601732 1.79366 0)
(-0.0949927 1.66818 0)
(-0.0524773 1.72133 0)
(-0.0672479 1.70853 0)
(1.03395 -0.0085136 0)
(1.02166 0.0157497 -4.83244e-22)
(0.788294 1.24805 2.02295e-19)
(1.00214 0.000374667 -1.05389e-19)
(1.00404 0.00532938 1.26584e-19)
(1.0012 0.00212338 0)
(1.01347 0.0104427 1.02738e-19)
(1.00853 0.00857651 -1.27528e-19)
(1.00936 0.015523 0)
(-0.0290746 1.98354 0)
(-0.0277595 1.93243 -7.96448e-21)
(-0.0202722 1.94248 7.04153e-21)
(1.19267 0.250687 -2.02341e-20)
(1.13065 0.0833028 0)
(0.0518865 3.07568 -2.20664e-19)
(0.0680558 2.84911 -1.73636e-20)
(0.148873 3.19615 3.56305e-19)
(0.143679 3.2263 -7.39607e-22)
(0.135907 3.24095 0)
(0.0213634 3.13815 4.88945e-20)
(0.0805517 3.16176 2.12378e-19)
(0.0721352 3.18843 -9.5503e-20)
(0.0255581 3.1287 0)
(0.666582 0.319648 0)
(0.588124 0.367667 0)
(1.08965 0.657316 -9.71813e-20)
(1.11636 0.796275 1.51122e-19)
(1.15048 0.543876 0)
(1.20104 0.492443 0)
(1.01645 0.0133938 -1.92478e-19)
(1.01508 0.0146236 2.40258e-19)
(1.02498 -0.0105726 0)
(1.02294 -0.0129269 0)
(1.00672 0.00239344 0)
(1.01036 0.00338476 0)
(1.00455 0.00155249 0)
(1.00984 0.00608382 0)
(1.00815 0.00635336 0)
(1.00433 0.00406693 0)
(0.130518 1.32921 0)
(0.132393 1.24165 0)
(0.141479 1.38813 0)
(0.143148 1.38634 0)
(0.143974 2.5831 0)
(0.189167 2.63788 -9.33683e-20)
(0.105228 2.63713 0)
(0.087698 2.63738 2.85881e-21)
(0.0148061 2.67366 8.63261e-20)
(-0.16413 1.0794 0)
(-0.184605 1.07444 0)
(-0.0902088 1.04522 0)
(-0.0119763 0.92316 0)
(-0.135621 2.35718 1.82258e-19)
(-0.255757 2.57778 -1.19821e-19)
(-0.207047 2.69882 -1.56686e-19)
(-0.219579 2.64103 0)
(-0.235543 2.46978 1.39151e-19)
(-0.171774 2.3642 1.05421e-19)
(-0.190399 2.34613 -1.49603e-19)
(-0.277743 2.53694 1.56021e-19)
(-0.255951 2.58173 1.94498e-19)
(1.01815 0.0311923 1.87941e-19)
(1.01142 0.0195009 -2.32717e-19)
(1.0096 0.0276394 -1.9496e-19)
(0.991666 0.0113704 2.50386e-19)
(1.05425 0.00107907 0)
(1.0414 -0.0170831 0)
(1.07412 0.0362191 0)
(1.05896 0.0116472 0)
(1.05672 0.00629214 0)
(1.11104 0.0809303 0)
(1.08671 0.0491208 0)
(1.09061 0.0400186 0)
(-0.0559543 1.88169 -2.66786e-22)
(-0.0799542 1.85932 0)
(-0.0581894 1.86314 0)
(-0.043668 2.0478 -6.19615e-21)
(-0.0269446 2.07324 8.40084e-22)
(-0.147149 1.82619 2.43968e-21)
(-0.0980387 1.80062 -2.45861e-21)
(-0.132733 1.71726 0)
(-0.0980157 1.7552 0)
(-0.0857259 1.76164 0)
(-0.147934 1.61019 0)
(-0.105487 1.52381 0)
(0.377097 1.47578 3.33467e-19)
(0.419946 1.48924 1.3223e-19)
(0.583077 2.42366 -6.43924e-20)
(0.411991 2.51827 1.80015e-19)
(0.351654 2.09045 -1.92009e-20)
(1.02101 -0.00880665 0)
(1.01534 -0.010153 0)
(1.01474 -0.0160593 0)
(1.00777 -0.00146492 0)
(1.0048 -0.00140004 0)
(1.00764 -0.00471445 0)
(1.00909 -0.00374991 0)
(1.01393 -0.00458318 0)
(1.02296 0.0157395 1.83711e-19)
(1.01812 0.0165796 -2.34628e-19)
(1.02471 0.0186103 -1.82771e-19)
(1.0204 0.019951 2.29878e-19)
(0.760144 1.30081 0)
(0.69796 1.35519 2.44739e-19)
(0.856129 1.20484 1.41786e-19)
(0.916349 1.14719 -1.88595e-19)
(1.15244 2.61085 -2.2833e-19)
(0.838549 0.102955 1.2074e-19)
(1.12455 0.107259 0)
(1.17868 0.187416 1.96708e-20)
(1.16692 0.150588 8.20225e-22)
(0.985445 0.123568 0)
(0.167029 2.96151 4.42729e-20)
(0.124356 2.86828 -3.05066e-19)
(0.0374635 2.36843 2.01343e-19)
(0.102059 0.0912601 -7.95137e-20)
(0.339696 3.43213 -1.79639e-19)
(0.198107 3.32497 0)
(0.230795 3.36485 2.33783e-19)
(0.261832 3.04335 -2.92684e-19)
(0.366724 3.20565 0)
(0.00696917 3.12043 1.1299e-20)
(0.0165648 3.12936 -1.46886e-19)
(0.0154017 3.1252 2.15423e-19)
(0.0375685 3.14012 0)
(0.0360143 3.15117 0)
(1.19071 2.65387 0)
(0.535951 0.8533 -9.70351e-20)
(1.04389 0.969068 -7.77445e-20)
(0.948238 1.05636 0)
(0.792934 0.935206 1.88971e-20)
(1.03188 0.865467 1.11009e-20)
(0.382449 0.441747 -2.2367e-19)
(0.700079 0.338932 -9.28934e-21)
(0.689217 0.271958 9.26048e-20)
(0.597556 0.409246 7.26766e-21)
(0.535465 0.369999 -2.98797e-19)
(0.671792 0.360392 0)
(0.702231 0.425367 1.5114e-19)
(0.705116 0.421171 0)
(0.626286 0.400035 0)
(0.618525 0.320225 0)
(0.774391 0.591421 5.60486e-20)
(1.18216 0.273638 5.79735e-21)
(1.19275 0.401919 0)
(1.21307 0.350064 0)
(0.767441 0.198932 1.38071e-19)
(0.824796 0.535405 -7.65464e-20)
(0.736807 0.504942 1.25423e-19)
(0.919807 0.416391 -1.18521e-19)
(1.02014 0.0147613 1.26221e-19)
(1.01831 0.014162 -1.28861e-19)
(1.01573 0.0164079 0)
(1.03486 -0.00644361 0)
(1.02914 -0.00963618 -1.16011e-19)
(1.02719 -0.0134382 1.15005e-19)
(1.02522 0.00869753 0)
(1.02446 0.011707 0)
(1.01118 0.00376002 0)
(1.01431 0.00878339 0)
(1.01491 0.00322863 0)
(1.01403 0.00235381 0)
(0.145953 1.23281 0)
(0.118678 1.0737 0)
(0.154504 1.37826 1.33821e-19)
(0.279929 1.45466 1.01832e-19)
(0.181782 1.42952 2.227e-19)
(0.205787 1.43552 -3.59189e-19)
(0.167454 1.38296 0)
(0.104651 1.58676 1.05902e-19)
(0.0815096 1.55986 0)
(0.348391 2.03722 2.77492e-20)
(0.357116 2.38134 9.32528e-20)
(0.156385 1.45415 -9.26695e-20)
(0.261332 1.35678 7.61625e-20)
(0.185103 1.36517 -6.10359e-20)
(0.264217 1.30925 1.22635e-19)
(0.239001 1.58039 0)
(0.262297 1.61754 -7.68833e-20)
(0.0602583 2.35276 4.57217e-20)
(0.0182123 2.68098 0)
(0.0681388 2.41523 -6.98147e-20)
(0.0496058 2.46113 0)
(0.0784758 2.64536 -3.69214e-21)
(0.0437538 2.69228 0)
(-0.172258 1.46147 2.16338e-19)
(-0.0357248 1.64614 0)
(0.0300689 1.2975 0)
(-0.112185 1.23419 -2.43441e-19)
(-0.140269 2.70624 -2.8796e-20)
(-0.0223652 2.73643 -1.23784e-19)
(-0.101194 2.73301 -7.54607e-22)
(-0.479689 2.1774 -6.73015e-20)
(-0.38887 2.11906 -7.56006e-20)
(-0.18275 1.18628 0)
(-0.1418 1.20231 0)
(0.17701 1.8072 -2.62747e-19)
(0.142475 1.49198 -2.8977e-19)
(0.11459 1.6845 3.66108e-19)
(0.194114 1.79637 0)
(-0.148193 1.95825 1.53022e-20)
(-0.123505 2.0295 -9.14814e-21)
(-0.155629 2.09338 4.18581e-21)
(-0.466181 2.02898 8.12693e-20)
(-0.263109 2.27957 1.60326e-20)
(-0.277084 2.35779 -1.03644e-19)
(1.02273 0.0242056 -1.2348e-19)
(1.02006 0.0280077 1.24106e-19)
(1.01636 0.0228794 0)
(1.01113 0.0492254 1.78845e-19)
(0.995183 0.0362132 -2.09022e-19)
(0.962833 0.0182547 2.42537e-19)
(1.00979 0.083122 -2.32746e-20)
(1.04032 -0.00737225 0)
(1.0447 -0.00860955 1.05019e-19)
(1.0355 -0.0151526 -1.04532e-19)
(1.06183 0.0405548 -5.73802e-21)
(1.05771 0.0199061 5.11571e-20)
(1.06025 0.0480901 0)
(1.05515 0.0410146 -1.89548e-20)
(1.04069 0.0295499 0)
(1.0367 0.0281629 0)
(1.0268 0.0119545 0)
(1.02553 0.0155112 0)
(1.04772 0.0266204 3.95245e-20)
(1.04517 0.0180427 -8.93042e-20)
(1.05359 0.0231226 -4.02173e-20)
(1.05197 0.0251471 -4.63851e-20)
(1.06078 0.0575145 8.39099e-20)
(1.07768 0.0522223 0)
(1.08629 0.0929877 0)
(-0.136251 1.94242 9.1139e-21)
(-0.0988689 1.86539 -1.93675e-22)
(-0.10886 1.88369 0)
(-0.0810919 1.94811 -9.219e-21)
(-0.0616156 1.89457 4.37984e-22)
(-0.0699924 1.91834 9.55387e-22)
(-0.141695 2.32216 -1.07622e-19)
(-0.160239 2.15374 2.01975e-21)
(-0.206209 2.2235 -1.41864e-20)
(-0.0615104 2.17583 3.23018e-20)
(-0.0732279 2.19962 -3.69043e-20)
(-0.200161 1.76844 -9.00978e-23)
(-0.185672 1.83788 3.0331e-21)
(0.368938 1.39323 -1.64134e-19)
(0.364147 1.35962 -1.54853e-19)
(0.644744 1.40813 -2.36326e-19)
(0.515238 1.47573 -1.27793e-19)
(0.572468 1.44734 0)
(0.578634 2.3963 5.42378e-20)
(0.645658 2.38471 9.56341e-20)
(0.408807 2.49521 3.47621e-20)
(0.412732 2.55341 -6.60144e-20)
(0.526631 2.51583 1.11227e-19)
(0.535536 2.43652 0)
(0.490695 2.48043 -1.51071e-19)
(0.235842 2.56903 2.60801e-19)
(0.349593 2.54916 -3.23794e-20)
(0.285214 2.62631 -3.83515e-19)
(0.907565 2.375 1.04074e-19)
(0.811583 2.3651 0)
(1.01027 8.55773e-05 4.15466e-21)
(1.01471 -0.00570051 -3.45054e-21)
(1.0178 -0.00374242 -6.15889e-20)
(1.01492 -0.000673661 6.2168e-20)
(1.01211 0.00101264 0)
(0.619328 1.25737 0)
(0.621133 1.15587 0)
(0.719272 1.06325 0)
(0.626375 1.10357 0)
(1.18093 2.62312 2.63749e-20)
(1.06555 2.36308 0)
(0.855974 2.23025 -6.40533e-22)
(0.817423 2.48318 0)
(0.914348 2.56713 7.94411e-21)
(0.952851 2.52243 -5.16986e-21)
(0.842649 0.1476 0)
(0.817923 0.138964 3.44393e-20)
(0.926141 0.123798 1.79495e-19)
(0.863444 0.11725 -7.13738e-20)
(0.85103 0.0625089 -2.1552e-19)
(1.03518 0.216882 -1.111e-19)
(0.959163 0.279788 -6.26151e-21)
(0.901235 0.268131 1.63272e-19)
(0.973051 0.200643 1.22526e-19)
(0.93734 0.157268 -2.26585e-19)
(0.913674 0.167697 2.91325e-20)
(0.937142 0.226929 -5.73679e-20)
(0.916672 0.19162 0)
(0.972139 0.156984 1.08707e-19)
(1.01746 0.165368 0)
(1.0094 0.195176 0)
(1.07314 0.110444 3.62311e-20)
(1.04596 0.158699 -5.43081e-21)
(1.03204 0.218666 -1.8979e-20)
(1.07045 0.192282 0)
(1.02765 0.0294353 9.43531e-20)
(1.04691 0.0470548 1.11063e-19)
(1.04305 0.032075 -9.27472e-20)
(1.04345 0.0525828 -7.49295e-20)
(1.0219 0.0545526 -1.26118e-19)
(0.975836 0.12384 0)
(0.992966 0.0781115 0)
(0.970839 0.0429608 -8.73369e-20)
(0.932872 0.0572962 3.59739e-20)
(1.0289 0.082724 1.06299e-19)
(1.04664 0.108684 -1.09091e-19)
(1.05387 0.133668 9.77102e-20)
(1.01435 0.127431 0)
(1.05466 0.0980122 0)
(1.04466 0.0780341 -4.54003e-20)
(1.04027 0.0814398 -8.51907e-20)
(0.580419 1.09031 -3.55634e-20)
(0.628617 1.42 7.15017e-20)
(1.16079 2.75515 3.96369e-20)
(1.2368 3.08591 -3.32418e-20)
(1.24703 2.72204 2.58027e-19)
(1.27892 2.72107 -1.58771e-19)
(1.16483 2.36119 8.64284e-21)
(1.2247 2.98043 7.97396e-20)
(1.24492 2.9499 -8.44321e-20)
(1.24256 3.24358 -1.39168e-19)
(1.3669 2.9821 1.62708e-19)
(1.30858 2.90582 0)
(0.530284 0.859759 -5.69783e-21)
(0.137978 1.27537 1.67043e-19)
(0.544106 0.514631 1.49205e-19)
(0.357633 0.275586 1.58045e-19)
(0.546902 0.417283 1.68482e-19)
(0.567153 0.477574 -2.66492e-19)
(0.56136 0.503849 2.18976e-19)
(0.511786 0.445943 -8.84451e-20)
(0.447172 0.372867 2.00999e-19)
(0.775337 0.251573 -7.71344e-20)
(0.726792 0.295733 0)
(0.723881 0.232862 4.16252e-21)
(0.724461 0.511583 7.73602e-20)
(0.696829 0.479238 -2.86897e-19)
(0.614689 0.482052 6.35438e-21)
(0.633365 0.463457 0)
(0.650402 0.726238 6.54777e-20)
(0.806641 0.756238 2.29739e-20)
(0.720798 0.837808 -3.02857e-20)
(0.843719 0.787263 -7.56844e-21)
(0.869989 0.818847 5.04714e-21)
(0.87693 0.821498 -5.18599e-21)
(0.819581 0.624146 -9.59975e-20)
(0.88913 0.689274 7.05437e-21)
(0.940989 0.696154 0)
(0.922457 0.667459 -9.74612e-21)
(0.985627 0.300578 2.66103e-20)
(1.08081 0.278981 8.78101e-21)
(1.01834 0.252746 4.47046e-20)
(0.971246 0.34597 -6.13622e-20)
(1.01628 0.401546 0)
(1.05482 0.389714 0)
(0.891671 0.346152 2.62388e-21)
(0.833543 0.285167 0)
(0.85488 0.277496 8.30142e-20)
(0.889896 0.274748 -3.54085e-21)
(0.907459 0.417813 3.2541e-19)
(0.871159 0.480883 8.30771e-20)
(0.871772 0.446218 -1.06248e-19)
(0.799231 0.434926 1.14013e-19)
(0.786962 0.436831 7.67999e-20)
(0.752868 0.418854 -7.47537e-20)
(1.02637 -0.00119942 9.90318e-20)
(1.01979 -0.000354616 0)
(1.01842 0.000558742 6.6431e-20)
(1.0219 -0.00187836 -1.48949e-19)
(1.02202 0.00393818 7.24192e-20)
(1.02091 0.0104238 -1.52644e-19)
(1.02201 0.0099176 0)
(1.02105 0.0104493 -3.19509e-20)
(1.0161 0.00763008 7.99647e-20)
(1.01697 0.010229 -4.06918e-20)
(1.0178 0.0094652 2.9915e-20)
(0.0263076 1.02301 0)
(0.109886 1.21736 0)
(0.102782 1.08084 0)
(0.070338 0.944732 0)
(0.188996 1.3628 -3.00366e-19)
(0.17119 1.33151 9.7061e-20)
(0.175029 1.47999 6.15218e-20)
(0.134807 1.3854 -7.22342e-20)
(0.194015 1.53074 2.49687e-19)
(0.211984 1.4962 -1.87403e-19)
(0.243276 1.35268 -1.10104e-20)
(0.25834 1.29219 2.06852e-19)
(0.204942 1.21829 3.08893e-20)
(0.197604 1.21651 3.1097e-20)
(0.0989767 2.37881 7.60896e-20)
(0.0878916 2.42027 0)
(0.143677 2.08313 -1.36163e-20)
(0.109796 1.72762 -4.36541e-20)
(0.242824 2.06757 1.0448e-20)
(0.213655 2.4598 0)
(0.278053 2.41351 -5.21251e-20)
(0.306548 2.41568 3.6974e-20)
(0.218285 2.02277 2.67601e-20)
(0.135642 2.19309 3.18006e-21)
(0.145473 2.32483 0)
(0.112625 2.13125 2.49994e-19)
(-0.095201 2.59699 2.53781e-19)
(-0.0347254 2.46355 0)
(0.0264237 2.57658 -1.21725e-20)
(0.0414213 2.4143 -1.10843e-19)
(-0.294268 1.33847 -2.72596e-20)
(-0.29927 1.35422 3.9553e-19)
(-0.319891 1.44003 -7.83307e-20)
(-0.391204 1.49902 -1.70184e-19)
(-0.238666 1.41993 0)
(-0.328766 1.41037 0)
(-0.177686 1.47773 -2.97511e-20)
(-0.283328 1.50584 1.00216e-20)
(-0.321395 1.41865 0)
(-0.205856 1.31831 -3.00566e-20)
(-0.131372 1.3748 5.13624e-20)
(1.04045 0.00297681 0)
(1.04204 -1.64188e-05 -9.71627e-21)
(1.04414 0.0133943 -7.12107e-20)
(1.0509 0.0097867 0)
(1.05039 0.00718347 0)
(1.03783 0.005191 -2.64661e-21)
(1.03321 0.00656371 1.17714e-19)
(1.03376 0.0126162 1.43534e-19)
(1.0277 0.0198418 0)
(1.02693 0.0205128 0)
(1.04024 0.0209962 7.18516e-20)
(1.03333 0.0236145 0)
(1.03038 0.0229011 0)
(-0.31438 2.00364 0)
(-0.234411 1.85041 -1.66144e-21)
(-0.246024 1.95475 -4.85099e-21)
(-0.265074 1.58188 0)
(-0.307606 1.80012 -1.32014e-20)
(-0.239754 1.73504 -1.6758e-21)
(-0.232367 1.65103 0)
(0.377741 1.6917 0)
(0.364695 1.28535 2.50778e-19)
(0.305807 1.34248 0)
(0.414862 1.27176 -3.30095e-19)
(0.458207 1.43856 0)
(0.433792 1.39163 1.55969e-19)
(1.01958 2.70157 -1.96271e-21)
(0.940242 2.41344 -1.2768e-19)
(0.869521 2.16088 1.67162e-19)
(0.834707 2.36001 5.65571e-20)
(0.834026 2.52533 0)
(0.8955 2.51611 0)
(0.86877 2.37748 0)
(0.903788 2.32652 -1.97334e-19)
(0.683349 2.49556 -1.39814e-20)
(0.796357 2.49418 -6.40784e-21)
(0.801929 2.46168 5.07999e-21)
(0.676071 2.36518 0)
(0.7782 2.36483 0)
(0.737898 2.37161 -9.5524e-20)
(0.756339 2.50902 0)
(0.590655 1.09377 0)
(0.47974 0.936611 -3.4672e-21)
(0.545823 0.956114 -1.09075e-21)
(0.518028 1.06043 0)
(0.520247 1.02009 6.08565e-21)
(0.742669 0.865308 4.39374e-21)
(0.755592 0.994635 0)
(0.728322 0.937828 -2.16484e-20)
(0.602041 1.02946 0)
(0.614537 0.934349 0)
(1.16178 2.76834 1.77263e-20)
(1.13945 2.83433 4.6936e-20)
(0.942652 2.35855 -1.0826e-19)
(0.903336 2.33315 1.10261e-20)
(1.12292 2.73673 0)
(1.0721 2.70656 -1.35864e-20)
(1.07823 2.48464 -3.92879e-20)
(0.972699 2.22762 -1.36131e-20)
(0.488237 1.37311 0)
(0.492134 1.0687 3.11555e-20)
(0.538544 1.13046 0)
(0.857941 0.218354 0)
(0.820102 0.176295 0)
(0.778363 0.160902 0)
(0.849639 0.226002 -1.31198e-19)
(0.792602 0.222466 8.17218e-20)
(0.940281 0.0501424 -7.4635e-20)
(0.951851 0.0988928 0)
(0.924679 0.104582 3.33486e-20)
(0.888183 0.0834773 1.3684e-19)
(0.879375 0.0449692 -8.43664e-20)
(1.17659 3.379 -4.17359e-19)
(1.22774 3.29562 0)
(1.14395 3.39667 -7.92125e-19)
(0.642999 3.555 6.98112e-19)
(0.856002 3.11636 1.43872e-19)
(0.501918 0.887288 9.76076e-20)
(0.419722 0.877169 0)
(0.347629 0.557193 -3.45987e-20)
(0.452319 0.693079 1.58815e-19)
(0.546868 0.521057 -4.64061e-20)
(0.52827 0.545128 5.35084e-20)
(0.658995 0.526802 1.12089e-19)
(0.686852 0.538819 0)
(0.649736 0.615814 0)
(0.60081 0.545911 0)
(0.932023 0.583043 -1.72163e-20)
(0.875103 0.525621 -7.97228e-20)
(0.895013 0.558111 4.11102e-20)
(0.925501 0.497574 -5.96421e-20)
(1.03277 0.461889 0)
(1.02081 0.54717 -4.28836e-21)
(0.82305 0.391629 -1.69976e-19)
(0.827439 0.375472 -1.9289e-19)
(0.779035 0.384932 1.32679e-19)
(0.774006 0.361571 -1.47665e-19)
(0.827687 0.312363 -1.10725e-19)
(0.778293 0.313856 1.36409e-19)
(1.02598 0.00521835 -7.60296e-20)
(1.02581 0.0057291 1.57218e-19)
(1.03083 -0.00103656 9.3911e-20)
(1.03214 0.000138681 -1.13769e-19)
(1.03416 0.0026876 0)
(1.0309 0.00419232 -1.85238e-19)
(0.150997 1.74222 -2.98484e-20)
(0.153802 1.68753 0)
(0.143778 1.74156 -2.065e-19)
(0.129387 1.7158 1.88037e-19)
(0.161782 1.56069 -1.14333e-19)
(0.238941 1.58169 0)
(-0.48638 2.0175 0)
(-0.436875 1.7232 1.28564e-20)
(-0.400539 1.70667 -1.1586e-20)
(-0.336377 1.83054 -3.8341e-21)
(-0.338255 2.02779 1.48039e-20)
(-0.393283 2.04553 -1.31279e-20)
(0.481838 1.38408 1.68945e-19)
(0.474412 1.39136 -1.78519e-19)
(0.430388 1.27232 1.67397e-19)
(0.418006 1.2949 -1.01326e-20)
(0.609075 1.27807 0)
(0.528661 1.36843 2.1311e-19)
(0.547343 1.38817 -2.06652e-19)
(0.440268 1.25608 -1.62371e-19)
(0.486446 1.21507 0)
(0.53406 1.17111 0)
(0.64647 2.45374 2.09698e-20)
(0.668694 2.47625 2.21942e-19)
(0.707459 2.49259 -1.51777e-19)
(0.61834 2.48252 -4.85493e-20)
(0.566061 2.57762 4.46037e-20)
(0.529537 2.55538 -1.27566e-19)
(0.95698 2.36782 -9.00154e-20)
(1.00279 2.38935 0)
(0.892613 2.14244 -1.23918e-19)
(1.04067 2.68893 0)
(1.04152 2.67607 0)
(0.616438 2.27257 7.4715e-20)
(1.03056 3.16621 1.88223e-19)
(0.89874 3.02803 -1.39945e-19)
(0.299666 0.962456 0)
(0.352109 0.818909 -6.60131e-20)
(0.481043 0.780037 -2.96927e-20)
(0.420882 2.00778 0)
(0.483822 2.79269 -1.01853e-19)
(0.443808 2.57825 0)
(0.666989 0.65649 -1.34754e-19)
(0.741531 0.658398 1.67825e-19)
(0.773063 0.603416 -1.62643e-19)
(0.668694 0.625801 -1.97754e-20)
(0.715642 0.581216 -7.97018e-20)
(1.01486 2.77724 -1.42141e-19)
(1.04258 2.84288 1.29947e-19)
(0.667566 2.17682 4.62407e-20)
(0.591481 1.73923 -4.16609e-20)
(0.712797 1.92888 3.9823e-20)
(0.99402 2.48412 -2.60309e-20)
(0.995645 2.47535 -7.88129e-20)
(0.678657 1.90421 -3.23361e-21)
(0.461798 1.36005 -2.6506e-20)
)
;

boundaryField
{
    wall-4
    {
        type            noSlip;
    }
    velocity-inlet-5
    {
        type            fixedValue;
        value           uniform (1 0 0);
    }
    velocity-inlet-6
    {
        type            fixedValue;
        value           uniform (0 3 0);
    }
    pressure-outlet-7
    {
        type            zeroGradient;
    }
    wall-8
    {
        type            noSlip;
    }
    frontAndBackPlanes
    {
        type            empty;
    }
}


// ************************************************************************* //
