/*--------------------------------*- C++ -*----------------------------------*\
| =========                 |                                                 |
| \\      /  F ield         | OpenFOAM: The Open Source CFD Toolbox           |
|  \\    /   O peration     | Version:  4.0                                   |
|   \\  /    A nd           | Web:      www.OpenFOAM.org                      |
|    \\/     M anipulation  |                                                 |
\*---------------------------------------------------------------------------*/
FoamFile
{
    version     2.0;
    format      ascii;
    class       volScalarField;
    location    "14";
    object      p;
}
// * * * * * * * * * * * * * * * * * * * * * * * * * * * * * * * * * * * * * //

dimensions      [0 2 -2 0 0 0 0];

internalField   nonuniform List<scalar> 
918
(
0.223893
0.905144
0.00726833
0.223109
0.000229105
0.872335
-0.840333
0.409128
0.203857
-0.166057
0.0187842
0.195299
0.732788
0.499726
-1.47157
0.0141865
0.362415
-0.701951
0.202209
0.00618588
0.478485
0.210615
0.213633
0.204313
0.260346
0.492389
0.613242
0.00198833
-0.00321859
-0.0020761
0.00370209
-0.00250036
0.00290436
0.755926
0.807082
0.829738
0.173663
-0.0108183
-0.689058
-0.770214
-0.743978
-0.898342
0.397158
0.401699
-0.497115
0.408815
0.423618
0.191738
0.203149
0.204156
0.205292
0.204263
0.205581
0.27531
-0.213094
-0.284023
-0.102643
-0.077324
0.0730508
0.0211098
0.0121626
0.0221733
0.0220866
0.132462
0.192056
0.188429
0.200229
0.209125
0.8447
0.81652
0.842676
0.756634
0.773067
0.710685
0.68323
0.519796
0.541329
0.486246
0.476596
-1.91579
-2.89037
-0.869469
-0.610093
0.00194319
0.0210545
0.0261683
0.34347
0.351073
0.354236
0.366684
0.764152
-0.69057
-0.80206
0.202064
0.200969
0.210283
0.21097
0.207001
0.206165
0.0136284
0.0210979
-0.00327005
0.00506904
0.00365614
0.458909
0.455009
0.204932
0.201769
0.216842
0.24037
0.229128
-0.0243483
0.275846
0.302082
0.294415
0.473473
0.471419
0.478598
0.586521
0.549936
0.650591
0.67368
0.0070842
0.00179048
0.0108777
0.00786414
0.0111864
0.170682
0.165376
0.18458
0.175158
0.177758
-0.0876961
-0.217656
0.063835
0.0843431
-0.595987
-0.671122
-0.752211
-0.778884
-0.862988
0.188521
0.383722
0.386945
-0.512143
-0.425585
-0.57925
-0.349554
-0.42366
0.18108
0.189411
0.183973
0.19875
0.193585
0.195006
0.207426
0.204586
0.206066
0.292598
0.360458
0.228127
0.211398
-0.535792
-0.354954
-0.499116
-0.0423718
-0.0289306
0.0850054
0.0966651
0.0630528
0.0610939
-0.00790466
0.00885872
-0.00169218
0.0231621
0.0243233
0.126322
0.117247
0.141068
0.148493
0.183589
0.184499
0.185936
0.187041
0.633773
0.655995
0.663789
0.637563
-3.90302
-6.7282
-0.275481
-0.132128
0.00186167
0.00302194
0.00127696
0.00374891
0.00387677
0.00142853
0.0385611
0.0371635
0.0297861
0.0341133
0.330461
0.336446
0.746477
0.790524
0.674136
0.675924
0.190304
0.192827
0.197789
0.193468
0.024261
0.0224862
0.0256074
0.423172
0.440552
0.442814
-0.0578579
-0.146156
0.0235264
0.0504691
0.319045
0.303144
0.322972
0.357912
0.396367
0.681116
0.699696
0.697847
0.70661
0.750542
0.766898
0.732335
0.154054
0.162905
0.158436
0.189955
0.186021
0.187364
0.18302
0.185277
0.183061
-0.369427
-0.754026
0.161822
0.155201
0.118396
0.129686
0.263153
0.333533
0.363574
0.371692
0.378327
-0.283359
-0.351791
0.176999
0.161788
0.0754268
0.104967
0.0893027
0.605071
0.565543
0.615547
0.588752
0.550432
0.575621
-0.70447
-2.23889
-1.33603
0.234386
0.0380274
0.130291
0.0544366
0.0409685
0.0468247
0.710331
0.732974
0.406703
0.551088
0.523785
0.439133
0.470104
0.523257
0.448008
0.482553
0.519135
0.500289
0.158167
0.174223
0.139836
0.404147
0.471813
-0.171346
-0.218158
-0.278899
0.105002
0.137965
0.125627
0.649784
0.544429
0.631314
0.201827
0.202257
0.0116887
0.0201704
0.206177
0.206386
0.00692965
0.00858732
0.109413
-1.18291
-0.179382
0.1943
0.185355
0.201672
-0.202133
0.314884
0.0148866
0.0827104
0.0582633
0.193089
0.14332
0.108216
0.00697552
0.0199674
0.0144572
-0.479803
0.19947
0.197527
0.201306
0.202398
0.203132
0.00863523
0.0102942
0.00651882
0.0118231
0.0109456
0.00951854
0.169
0.181395
-0.492311
0.2014
0.203519
0.203418
0.196806
0.201993
0.199991
0.0159057
0.0109583
0.0105927
-0.0728739
0.0435713
0.368199
0.48206
0.314185
0.0898183
-0.152595
0.264445
0.333853
0.2297
0.399769
0.365335
0.393155
-0.122547
-0.269182
-0.110242
-0.163678
0.192025
0.190954
0.183966
0.180945
0.197148
0.19551
0.199395
0.196904
0.199324
0.20044
-0.119383
-0.087002
-0.256097
-0.316914
0.318171
0.413731
0.206737
0.241612
0.134197
0.0201861
0.0212745
0.0164707
0.0145472
0.050849
0.0619663
0.0776658
0.0626083
0.0494343
0.0440706
0.0517607
0.0576832
0.0613538
0.187711
0.186248
0.192037
0.199029
0.150945
0.154353
0.125515
0.14223
0.132077
0.0761237
0.106788
0.0864773
0.00836925
0.00856091
0.00696989
0.0237699
0.0277817
0.0144592
0.0119578
0.0134107
0.0107043
0.010649
0.0177964
0.0211052
-0.496456
-0.580314
0.633261
0.604298
-0.583869
0.188096
0.194386
0.191335
0.19644
0.199477
0.200014
0.19789
0.195186
0.182298
0.184648
0.180314
0.18116
-0.430981
-0.569943
-0.39621
-0.461423
-0.193312
0.307172
0.055239
-0.00486438
-0.00814185
0.202199
0.566782
0.381203
0.434552
0.456968
-0.679849
-0.279399
-0.610903
0.00214732
-0.167371
0.367529
0.421901
0.446283
0.39111
0.338542
-0.446027
0.188612
-0.37071
-0.33916
-0.150938
-0.239167
0.411627
0.349648
0.356168
0.379843
0.40347
0.354768
0.336623
0.334448
0.371991
0.376565
0.166679
-0.0361607
-0.0844846
-0.118635
0.332336
0.211159
0.266364
0.184753
0.18688
0.18944
0.188675
0.173039
0.178849
0.1745
0.180672
0.182509
0.192997
0.192396
0.188288
0.190935
-0.0535761
-0.0365372
-0.226536
-0.465414
-0.329965
-0.436235
-0.323414
-0.144001
-0.0619468
-0.340746
0.0510301
-0.332342
-0.578572
-0.431795
-0.640379
-0.315829
-0.452566
0.0853141
0.145326
0.150652
0.141537
0.19639
0.183149
0.0365655
0.0429812
0.0230104
0.0258699
0.0824601
0.103188
0.105667
0.0438086
0.0471542
0.0231208
0.0234121
0.0507657
0.0301539
0.039923
0.0546709
0.0204579
0.0235684
0.0278561
0.0336189
0.0373721
0.0388691
0.181292
0.183822
0.182594
0.195328
0.206315
0.220073
0.190401
0.167437
0.159896
0.163511
0.141486
0.148581
0.147228
0.156052
0.173982
0.179833
0.178798
0.180592
0.167798
0.168744
0.155847
0.159846
0.142569
0.125375
0.113977
0.0175892
0.0115185
0.0149369
0.0152051
0.0109125
0.0126582
0.0407593
0.0317594
0.035733
0.032034
0.0371238
0.0171117
0.0176755
-0.571028
-0.610889
-0.530552
-0.568844
-0.620812
0.562674
0.639023
0.486214
0.273024
0.25599
0.484671
0.598878
0.372488
0.435325
0.487247
0.15308
0.407061
0.193837
0.193499
0.190648
0.190354
0.191751
-0.335594
-0.238056
-0.234266
-0.185233
-0.0680813
0.0358567
0.0526055
-0.136671
0.00264978
0.0422517
0.301547
0.317705
0.262981
0.287565
0.285814
0.116771
0.190989
0.236968
0.201138
0.240562
0.259818
0.223258
0.251967
0.204003
0.164661
0.164809
0.113048
0.12811
0.108948
0.0941739
0.183959
0.164027
0.173368
0.165817
0.184588
0.214508
0.206487
0.229907
0.245758
0.173564
0.134873
0.143894
0.172489
0.132901
0.144773
0.15953
-0.15023
-0.258363
-0.18068
-0.454258
-0.347033
-0.36165
-0.405506
-0.39305
-0.117051
-0.800688
-0.754843
-1.39103
0.122404
0.601867
0.366259
0.331365
0.399676
0.373566
0.372799
0.408885
0.41661
0.324826
0.340799
0.344404
0.297539
0.323066
0.350643
0.348476
0.166205
0.0588948
0.0484989
0.0171766
-0.109227
-0.0795346
0.133905
0.0566438
-0.0203456
-0.0123558
0.151102
0.0492996
0.106695
0.144389
0.07719
0.0356009
0.224746
0.292374
0.284819
0.25496
0.176767
0.19025
0.213263
0.245211
0.273705
0.312054
0.181483
0.184856
0.186698
0.185649
0.180978
0.184162
0.184102
0.186302
0.18657
0.189542
0.188735
0.01192
0.0119365
-0.0130508
-4.57675e-05
-0.056363
-0.0882092
-0.0839971
-0.123611
0.0206735
0.00902975
-0.037284
-0.0255391
-0.0111916
0.00180753
0.0808523
0.0897765
0.0405375
-0.0033282
-0.096236
0.193806
0.169628
0.0437632
-0.0504818
0.0391971
0.152048
0.0621994
0.0758782
0.0679807
0.0795823
0.0742002
0.0324561
0.0269522
0.0292848
0.0399015
0.0365555
0.0247361
0.0224932
0.0244419
0.0251276
0.0244428
0.0241148
0.167649
0.163365
0.165456
0.159746
0.15853
0.170691
0.173615
0.1751
0.179734
0.181363
0.17332
0.177231
0.180919
0.0271531
0.0211608
0.0232596
0.0232902
0.0219706
0.0195316
0.020041
-0.207695
-0.551906
-0.617414
-0.436579
-0.512446
-0.487264
0.162348
0.0956034
0.158448
0.278455
0.181828
0.0862464
0.139948
0.238709
-0.0101228
0.107142
-0.0287095
0.512069
0.37355
0.515612
0.145144
-0.121092
0.0139942
0.0679111
-0.122647
-0.055802
-0.0124214
-0.124516
-0.0938095
-0.0684714
0.0266988
-0.0862458
-0.119734
-0.323812
-0.11613
-0.0495472
-0.0681317
0.0505717
0.103819
-0.0237121
-0.169633
-0.209965
0.290012
0.310387
0.326271
0.300021
0.319892
0.248939
0.238513
0.257038
0.267364
0.261948
-1.12726
-0.841242
-1.77629
-1.08515
-0.646971
0.153405
0.103173
0.393847
0.294975
0.374527
0.357531
0.323651
0.289934
0.291568
0.328689
0.0445411
0.150897
0.126423
0.130384
0.0367332
-0.0251708
0.257422
0.253285
0.291618
0.315868
0.284242
0.317762
0.177689
0.177266
0.179444
0.175864
0.171875
0.173799
0.0568232
0.050366
0.0132784
-0.00989357
-0.00675498
0.0197243
0.0303444
0.0269451
0.0252545
0.0251359
0.0284552
0.0320979
-0.139605
-0.245821
-0.365503
-0.28725
-0.343626
-0.447028
-0.446169
-0.367362
-0.236767
-0.25807
-0.00781525
0.252231
0.0611829
0.223591
-0.0878952
0.0557781
0.159798
0.119365
0.154766
0.0477499
0.142394
-0.171227
-0.65247
-0.564322
0.416216
0.437475
0.220388
0.0255028
-0.192919
0.0107931
0.200872
0.145373
0.185028
0.250854
0.249782
-0.369444
-0.294889
-0.0888026
0.14035
-0.180701
-0.172047
-0.193042
-0.00767062
-0.0765256
)
;

boundaryField
{
    wall-4
    {
        type            zeroGradient;
    }
    velocity-inlet-5
    {
        type            zeroGradient;
    }
    velocity-inlet-6
    {
        type            zeroGradient;
    }
    pressure-outlet-7
    {
        type            fixedValue;
        value           uniform 0;
    }
    wall-8
    {
        type            zeroGradient;
    }
    frontAndBackPlanes
    {
        type            empty;
    }
}


// ************************************************************************* //
