/*--------------------------------*- C++ -*----------------------------------*\
| =========                 |                                                 |
| \\      /  F ield         | OpenFOAM: The Open Source CFD Toolbox           |
|  \\    /   O peration     | Version:  4.0                                   |
|   \\  /    A nd           | Web:      www.OpenFOAM.org                      |
|    \\/     M anipulation  |                                                 |
\*---------------------------------------------------------------------------*/
FoamFile
{
    version     2.0;
    format      ascii;
    class       surfaceScalarField;
    location    "14";
    object      phi;
}
// * * * * * * * * * * * * * * * * * * * * * * * * * * * * * * * * * * * * * //

dimensions      [0 3 -1 0 0 0 0];

internalField   nonuniform List<scalar> 
1300
(
3.75095
5.62643
-6.18574
3.75095
-6.01916
5.62643
-4.5009
4.5009
-1.44104
1.44104
1.877
1.87395
-4.1347
4.1347
-4.69228
4.69228
-2.8007
2.8007
-5.24649
5.24649
-5.06847
5.06847
4.68623
-4.68623
-4.89531
4.89531
-1.85886
1.85886
-3.78442
3.78442
3.17479
-3.17479
-5.02609
5.02609
-0.505518
0.505518
-0.554124
4.30508
3.19683
3.19683
-2.52159
2.52159
-4.85183
4.85183
6.21842
-6.21842
9.39223
-9.39223
-3.2065
-3.39922
1.34391
-8.12578
-4.67526
-4.67526
-8.44044
8.44044
-2.81401
2.81242
2.92749
-2.92749
-1.70037
1.70037
-4.49163
-0.00927681
-4.49163
4.48084
0.0200601
4.48084
-1.56243
0.121393
-1.56243
4.09165
-4.09165
1.2745
0.166542
1.2745
3.06707
-3.06707
-1.87719
3.75419
1.87376
-1.87234
6.17741
-1.87862
3.75257
-5.02447
5.02447
-3.88824
-0.246464
-3.88824
4.37293
-0.238231
4.37293
-5.23341
5.23341
-4.65539
-0.0368815
-4.65539
4.75193
-0.059653
4.75193
3.0196
-3.0196
-2.83286
0.0321552
-2.83286
2.75078
0.0499223
2.75078
0.35362
5.27281
-5.98005
8.79247
-5.27281
0.0263247
5.20861
0.037878
5.20861
-5.10618
0.0377115
-5.10618
5.00904
0.0594242
5.00904
4.78118
-0.0949516
4.78118
-4.79882
0.112593
-4.79882
-3.32193
-3.38852
-4.99325
0.0979327
-4.99325
-1.91375
0.0548926
-1.91375
1.81564
0.0432187
1.81564
-3.49081
3.49081
-4.08472
0.3003
-4.08472
3.13004
0.0447508
3.13004
1.86844
1.88251
5.6194
-5.6194
2.44461
-4.97622
-0.0498677
-4.97622
-5.08018
-4.31205
5.08018
-0.0540954
-0.81153
0.306012
-0.81153
3.15787
0.0389602
3.15787
2.6789
0.07188
-2.6789
0.157307
3.41933
-3.41933
1.87536
0.646235
1.87536
-5.57081
5.57081
4.94891
0.0601298
-4.94891
0.0970785
6.1575
0.0609188
6.1575
-6.19954
-0.0188819
-6.19954
3.37727
-6.77649
-3.40376
4.78965
0.105668
-4.78965
0.114388
2.92751
-2.31412e-05
2.92751
-2.89887
2.89887
-2.96497
0.0374764
-2.96497
-2.13897
0.438601
-2.13897
1.36637
0.333997
1.36637
-4.39017
-0.101451
-4.39017
-4.31887
0.234141
4.31887
0.161976
0.849003
-0.849003
-1.67468
0.112248
-1.67468
-4.23473
-0.155442
4.23473
-0.143078
-3.97998
-0.111677
-3.97998
-3.01685
0.0518877
3.01685
0.0502186
3.11401
0.0438606
-3.11401
0.0469368
-1.87114
3.75365
-1.87982
3.75358
-4.78763
-0.236846
-4.78763
5.17688
-0.152411
5.17688
3.71766
0.0667676
-3.71766
-0.170578
4.51542
-0.142492
4.51542
-5.26971
0.0362938
-5.26971
5.21101
0.0224041
5.21101
4.60314
-0.0877144
-4.60314
-0.0522568
4.82823
-0.0762996
4.82823
3.0721
-0.0525013
3.0721
-2.98467
-0.0349278
-2.98467
2.85697
-2.85697
2.85219
0.00478831
-2.85219
0.0193277
-11.1327
11.1139
-0.0351616
-11.0976
5.17345
5.17345
4.20646
0.57472
4.20646
-5.0091
0.210274
-5.0091
3.32642
-6.73018
3.39056
-6.71249
3.37536
-11.5011
3.33703
-6.72555
5.15209
-5.15209
5.08035
0.0717438
-5.08035
0.0870997
-1.94129
0.0275332
-1.94129
-2.95734
-0.533476
-2.95734
3.95644
-0.465626
3.95644
-3.026
3.026
-3.08072
0.054725
3.08072
0.0493172
4.90711
-0.0788827
-4.90711
-0.0691098
1.05998
0.214518
-1.05998
0.24845
3.61021
-0.190878
3.61021
-3.24888
-0.170458
-3.24888
-1.89702
-0.044267
1.89702
-0.0216617
-5.81855
0.247738
-5.81855
-11.1906
0.0930462
-11.1527
-6.10649
-6.10649
2.33395
11.1264
-2.95021
-0.0344643
2.95021
-0.0226978
2.96368
0.0623134
-2.96368
0.0648124
-2.86376
0.00678611
2.86376
0.0351112
-2.54656
0.40759
-2.54656
-0.975147
0.975147
-1.13148
0.156331
1.13148
0.234891
1.10214
-0.253138
1.10214
1.74541
0.0702337
-1.74541
0.0707272
-3.87794
-0.102038
-3.87794
5.26564
-0.0887592
5.26564
-3.13639
-0.112488
3.13639
-0.0642848
-0.033245
11.1471
-5.1402
0.034023
5.1402
-11.208
11.242
-3.23993
0.693367
3.23993
0.966534
5.29561
0.275205
-5.29561
0.286512
5.19512
0.0158844
-5.19512
0.0430342
-2.45619
-0.501149
-2.45619
-4.42181
-0.365821
4.42181
-0.465367
-11.4761
-0.201996
11.6781
-11.4167
6.02055
0.136954
-6.02055
11.379
-0.8415
-0.00750268
0.8415
0.133647
1.45029
-0.348152
1.45029
3.77504
-0.164825
-3.77504
-0.102902
-5.28804
0.0183329
5.28804
-0.0223969
-1.92234
-0.53385
1.92234
-0.472045
-4.2665
4.30546
1.91092
-3.35808
-3.41841
-7.67013
1.85149
1.90216
4.29609
-7.10389
-4.39725
-6.98951
7.2751
-6.98859
-9.3046
9.20965
7.44141
-7.55309
-5.77481
5.82413
6.474
-6.42378
1.88002
1.87417
8.31032
-8.55678
-12.7201
12.4833
10.0658
-10.1027
11.1812
-11.1449
-12.6401
12.656
-5.74957
5.78173
-6.6126
6.57768
-6.79173
6.72745
-3.28763
-3.42486
9.1705
-9.07257
11.739
-11.7888
-7.0346
7.3349
3.38505
0.920409
3.42891
-1.88123
3.76125
-1.87134
3.78226
3.39923
-6.68686
3.33095
-6.74936
6.07969
5.65928
-6.02559
-1.64453
-5.8528
5.85278
-5.84101
5.87612
8.91066
-8.91993
-1.88504
3.75922
-1.86854
3.7707
-3.4205
-2.3543
3.37575
0.920339
5.6191
3.55139
-5.72477
-1.26473
-7.64064
7.47582
-7.93519
7.76473
-0.459059
5.82875
-5.36969
4.39277
-1.55482
7.38357
5.72027
5.93055
5.86831
-5.5931
1.12028
-6.48997
-6.39289
-2.70848
2.82073
2.6635
-2.49696
5.86848
1.57293
5.7254
-5.44041
-2.11268
-5.54245
3.81402
2.0101
3.86875
4.03314
2.44086
4.08503
3.03087
-3.03685
0.00598018
-3.0591
6.08997
0.722368
-5.4134
-4.49306
6.01927
2.29105
5.78104
-5.06474
-3.49205
-5.23531
-7.99831
-4.72183
-8.36413
7.69753
4.78575
7.54512
-8.59496
8.57256
6.73071
3.33506
6.67106
-6.53156
-3.5711
-6.58382
10.5739
-2.44704
-8.12686
-7.14817
-5.49197
7.12577
4.0554
7.66435
4.99167
7.70739
3.51182
7.06208
-7.56722
2.07526
-3.8449
-1.90467
-3.82557
3.74191
2.03982
3.79183
-4.12918
-2.48342
-4.16365
-4.19736
-2.59437
4.24986
2.32781
-4.31113
-3.62406
4.42362
2.30382
3.09734
-7.49459
3.62821
-7.05307
-6.39754
-2.67503
-6.31044
4.14885
2.60938
-6.75824
-2.53801
10.9319
-5.27263
9.28737
-7.27586
-4.51297
-7.34497
-6.22409
-0.810516
-5.98995
-8.9384
8.43725
-8.65685
8.19122
14.6923
-7.05453
-7.63773
-3.97065
-2.45313
3.92372
-0.494809
-3.71167
3.71765
0.0495794
3.83183
4.75224
4.25744
-3.88252
-1.95849
-3.81771
3.86443
2.01169
3.87122
6.65292
2.25774
6.67298
-6.4512
-2.46873
-6.55265
9.07191
-8.63331
2.91769
-2.96195
5.17875
2.58598
-4.98787
-2.65277
6.01476
-3.03966
-2.9751
-12.2387
10.592
1.64671
-4.85517
-0.462397
0.0431207
-5.51418
-3.79041
5.40159
0.528958
11.121
7.33058
-5.51352
5.76126
6.16461
6.22474
-0.168153
5.85922
-5.16585
5.1927
-2.24621
-2.94649
5.26332
-5.41877
-1.28933
-5.27799
3.98866
0.306636
1.88803
-1.58202
-2.10063
-0.607855
-2.0299
1.60228
1.06122
1.8168
0.986125
1.83461
-2.95724
0.54096
2.41628
-1.97111
-1.956
-3.58532
-0.907441
4.49276
5.46503
2.01078
-5.36213
-0.180317
2.7476
-2.70438
-0.864628
-2.72069
1.93662
-2.80124
-3.47539
-1.77308
5.24847
-3.37076
-0.446945
3.30845
0.560298
-3.76082
-2.09198
3.72334
0.361691
-3.1319
6.24467
-3.11277
-5.09039
2.53255
3.55741
4.54266
-4.80262
2.4416
2.36103
-1.24521
5.43696
0.344079
5.29446
-7.0299
3.53785
4.93475
2.40016
-5.00152
-0.233798
-7.2637
11.0392
-7.89253
-3.14668
7.12822
3.91099
7.12552
7.56674
-6.40023
13.5257
1.02318
-8.91571
6.24052
-3.84036
4.31351
-8.15388
-11.8803
2.96454
-8.12514
8.99414
-0.868997
-2.41084
-6.18412
10.536
-1.27224
-9.26374
6.27288
-5.58499
-5.18182
10.7668
-8.03203
8.75292
-2.9642
-5.78872
-7.13073
-4.01414
7.1124
1.46016
-9.97914
12.0544
-2.91706
5.88098
0.790081
5.80468
4.33809
-6.02478
1.6867
3.69395
-6.65815
3.51263
-9.53742
-4.95295
9.65162
-4.69867
-7.62798
-6.84445
-0.783527
2.02922
10.0252
-7.02089
5.37576
1.64513
3.34744
0.523783
-3.35223
-0.473349
0.352808
4.44497
-4.79778
4.14464
4.21652
3.37287
1.0721
3.81479
2.03799
-3.79209
-0.371554
-4.02869
1.43432
-1.70087
-3.55793
4.99225
-3.97608
0.418146
-2.65052
-3.50045
6.15097
-4.55519
3.09154
3.15313
5.10323
-4.86344
1.36299
-2.40791
-2.45553
2.61308
-4.31396
1.9024
3.08985
4.20622
0.582168
4.91694
4.73468
-7.52632
0.473245
8.28608
-7.02134
1.73288
5.97451
-7.10863
0.264184
-6.04625
1.09011
-6.36273
-5.66813
5.02581
-5.83632
-3.12807
5.86912
0.803863
-6.03109
0.0411445
-5.97315
-2.96526
-6.507
-2.64557
-6.01128
-9.04579
-1.8925
-7.1533
6.54475
-5.96437
-2.39976
6.42973
1.76149
-7.21314
7.20564
-7.44613
7.09798
0.0937647
3.62389
4.3512
1.89807
-2.37868
4.27675
-5.01372
7.27146
-8.51132
3.4976
4.0335
-6.50223
-4.47782
4.95904
4.11288
5.29303
8.83861
-10.6613
1.82272
-10.7311
12.3848
-1.65369
-16.5101
5.77899
-7.67151
2.66226
0.255427
2.68979
0.678257
2.36965
-3.04791
-2.2837
-2.30536
-2.26869
-3.26877
5.53747
1.16694
-3.31296
2.14602
-3.41095
4.57789
-0.108063
-3.2049
5.15543
-2.78578
5.41086
-3.51901
1.89185
3.22898
5.47359
-2.24462
4.17292
-1.58694
1.74863
-3.99324
-1.52015
-2.97531
5.01513
-3.17565
3.5938
-0.217358
3.81116
-4.00645
0.966789
-0.633583
3.58293
3.74024
4.10008
-3.02798
2.86825
-4.45519
-1.12499
-3.87302
-0.783175
-0.577757
-3.62524
4.20299
5.97169
-6.54944
-5.38215
9.64351
-4.26135
7.74866
-5.45582
-2.29284
-4.27815
-4.35517
3.87056
1.98866
9.73732
0.188717
-5.64453
-4.97713
-4.0106
3.16632
2.02638
-2.06126
3.70797
2.01814
-0.130104
0.640805
1.17599
1.89852
-1.25772
0.157579
1.74094
-1.42444
2.03382
0.713778
-2.10405
0.0741485
-1.42576
3.36237
0.990518
-2.05174
0.794024
1.11043
-3.35664
4.66074
-2.29248
-2.36826
5.77117
1.21528
-3.50776
4.06271
-3.75607
2.2763
-3.18374
-1.23147
-4.98754
-3.41461
-2.44375
4.58977
-3.09372
5.10451
1.11438
-4.92419
6.03857
-3.45532
1.68224
-3.05473
3.76851
-1.12257
-1.93216
2.64283
2.60564
-2.78751
0.0668149
-0.144681
2.22121
-2.36589
-0.580034
-2.55115
-4.54603
4.90772
-2.17158
4.61317
2.10517
-1.92665
6.53982
1.82428
-3.75093
-3.26611
-3.71306
-1.3899
3.15276
-1.13263
-5.45119
-6.92135
5.5389
-0.24444
-7.73697
9.96722
-2.23025
-5.44592
1.90806
5.22016
-7.82994
1.17179
-4.3173
5.64992
5.994
5.74956
-10.1046
0.840897
-5.31888
2.66462
-7.9835
6.57561
-5.28051
8.24505
-10.0067
7.60695
-8.24523
5.09837
-2.88513
5.59242
-3.90572
2.53444
-6.54858
-5.08842
6.99939
-3.66433
7.78948
-4.18542
11.9749
-7.10248
7.01419
4.96071
-1.46793
-5.87705
-6.86294
5.39501
0.151251
5.95593
4.93664
-2.89865
4.56508
2.2323
-4.64021
-2.08166
-6.49726
1.85706
-3.34414
-1.88709
3.74414
3.21615
3.73993
1.28861
-3.26658
6.7741
-7.55763
-2.07543
-3.5927
6.77905
-1.38403
4.09666
-7.68935
-2.26608
5.27565
-0.0328387
-5.24282
1.77887
-4.90694
0.761898
-5.66884
5.07443
-5.03328
2.16132
-9.83283
-5.05182
-4.91817
-2.32075
-5.12538
-7.60611
5.28536
-1.82712
5.37852
-8.62733
8.59449
-3.7575
9.04285
-5.37441
-1.13259
5.84645
1.25153
10.2944
0.113045
-4.59087
-1.83306
3.85599
-2.02293
1.33326
-3.51219
0.343797
2.47989
3.29128
-6.46855
-0.0336803
-4.62455
-3.84765
7.96052
5.79586
11.7675
1.10622
9.20952
-1.249
10.3157
4.04404
4.27893
-2.94427
4.76699
1.25872
4.75632
-0.857737
2.74958
1.83206
1.88695
0.817427
2.28491
1.45533
3.2517
0.203793
-2.10157
4.67513
-8.68573
-0.969401
-8.11101
1.09863
5.74451
-4.64588
3.08491
-1.05853
1.06198
0.242899
-1.83151
1.58861
-2.70359
-1.96162
-0.220671
-1.51004
2.30406
1.85233
-2.08339
-0.620195
0.2577
-3.67231
2.92604
-2.85922
-0.253581
5.78499
-2.69713
0.331238
-1.01489
-2.21991
-2.82776
2.75361
6.25539
0.284426
3.14262
5.19215
3.10016
0.201513
5.77448
-6.64348
-3.76294
-5.80258
0.773035
5.99319
2.12212
7.90306
7.08283
5.69879
-1.99056
-9.54819
7.37942
-2.61244
5.72573
-0.482915
-5.18593
4.78729
2.48417
-5.59115
0.557872
-4.62805
-7.24049
-0.223688
8.81818
-10.0707
8.9381
5.97285
1.18045
-4.25
-0.668174
4.09366
0.185263
10.501
-1.12191
-6.92275
8.04466
-4.6226
3.6532
0.914176
2.79379
2.50279
1.44426
-5.4785
-10.1244
-1.76089
-1.59576
-4.12914
0.363619
-2.21595
6.30319
-2.64999
4.01035
5.39467
6.45665
-2.27294
-4.27651
6.53429
-2.52394
3.93271
)
;

boundaryField
{
    wall-4
    {
        type            calculated;
        value           uniform 0;
    }
    velocity-inlet-5
    {
        type            calculated;
        value           uniform -3.75095;
    }
    velocity-inlet-6
    {
        type            calculated;
        value           uniform -5.62643;
    }
    pressure-outlet-7
    {
        type            calculated;
        value           nonuniform List<scalar> 8(6.18574 6.01916 6.60572 6.78188 6.71045 6.78103 6.71698 6.71239);
    }
    wall-8
    {
        type            calculated;
        value           uniform 0;
    }
    frontAndBackPlanes
    {
        type            empty;
        value           nonuniform 0();
    }
}


// ************************************************************************* //
