/*--------------------------------*- C++ -*----------------------------------*\
| =========                 |                                                 |
| \\      /  F ield         | OpenFOAM: The Open Source CFD Toolbox           |
|  \\    /   O peration     | Version:  4.0                                   |
|   \\  /    A nd           | Web:      www.OpenFOAM.org                      |
|    \\/     M anipulation  |                                                 |
\*---------------------------------------------------------------------------*/
FoamFile
{
    version     2.0;
    format      ascii;
    class       volVectorField;
    location    "14";
    object      U;
}
// * * * * * * * * * * * * * * * * * * * * * * * * * * * * * * * * * * * * * //

dimensions      [0 1 -1 0 0 0 0];

internalField   nonuniform List<vector> 
918
(
(0.985249 -0.0004165 0)
(0.00499551 2.96626 0)
(-0.00428408 1.64052 0)
(0.979774 0.00205722 0)
(0.000417974 1.60297 1.51386e-21)
(-0.00702189 2.94878 -1.85176e-18)
(0.851465 1.18638 7.37114e-19)
(0.49248 0.233847 -8.95352e-21)
(0.999945 -0.00041837 0)
(0.00510119 1.21067 0)
(-0.00443043 1.3584 0)
(0.822693 -0.00548001 0)
(0.0110707 2.93037 0)
(0.00137018 2.79482 0)
(-0.0173634 3.16941 1.09588e-18)
(-0.00384652 1.51752 -1.64167e-20)
(0.589025 0.103997 5.56419e-19)
(0.168968 1.19782 6.15756e-19)
(0.964925 0.00530198 0)
(-0.000513985 1.48361 0)
(0.168538 0.273118 -4.71118e-19)
(1.0014 -0.00526151 0)
(1.0002 -0.00988547 0)
(0.975561 -0.00659899 0)
(0.739918 -0.0241956 0)
(0.017571 2.63045 0)
(-0.0152238 2.9102 6.38078e-19)
(-0.0115022 1.66739 0)
(-0.0115374 1.76453 0)
(-0.0106884 1.66394 0)
(0.0018931 1.80737 0)
(0.00123663 1.61871 -1.19835e-21)
(-0.0030717 1.52613 0)
(-0.0206362 2.98757 -6.46898e-23)
(-0.0167182 3.00532 1.43969e-18)
(0.0021075 3.00024 0)
(0.869407 -0.00604222 0)
(0.373915 0.903894 -4.00473e-20)
(0.842593 1.20368 -1.03631e-18)
(0.988852 1.05709 9.73074e-19)
(0.70632 1.29265 -1.71067e-19)
(0.701205 1.27269 9.83161e-19)
(0.522849 0.304808 8.736e-21)
(0.516011 0.206938 0)
(1.19273 0.573354 0)
(0.486544 0.320999 4.07489e-20)
(0.450611 0.229246 -4.22843e-20)
(0.919967 -0.00691158 0)
(1.00047 -9.79442e-06 0)
(0.999956 0.000367406 0)
(1.00392 -0.00769679 0)
(1.00073 -0.000895913 0)
(1.00012 8.27221e-05 0)
(0.0472272 1.56885 -5.23643e-19)
(-0.0232973 1.29372 0)
(0.00221493 1.13353 0)
(-0.0257172 1.3807 0)
(0.00112034 1.27198 0)
(-0.00245218 1.56993 0)
(-0.00533875 1.51564 0)
(0.00279297 1.35498 0)
(-0.0142141 1.54059 0)
(-0.00825716 1.37731 0)
(0.898115 -0.000922191 0)
(0.90151 0.00795337 0)
(0.836701 0.00104481 0)
(0.893472 0.0120344 0)
(0.809592 -0.00770656 0)
(0.0147187 3.00038 6.77527e-19)
(0.0115606 3.00772 0)
(0.00617056 3.00292 0)
(0.0135473 2.99727 7.54796e-24)
(0.00802012 2.95847 -1.00697e-18)
(0.0144966 2.98217 0)
(0.0107573 2.90366 0)
(0.0250526 2.93054 1.3458e-24)
(0.00410686 2.82505 0)
(0.0314254 2.91543 0)
(-0.00680773 2.74366 0)
(0.311659 3.57018 0)
(-0.132506 3.65217 0)
(0.141627 3.26036 -1.01989e-18)
(-0.0109424 2.99237 0)
(-0.00897622 1.78896 0)
(-0.0037016 1.6435 1.61953e-20)
(-0.00455898 1.53176 -2.54818e-20)
(0.651807 0.166097 -1.91459e-19)
(0.612704 0.0699302 -1.84905e-19)
(0.617861 0.195012 -5.72281e-19)
(0.57297 0.131684 -3.82413e-19)
(0.268012 1.04615 0)
(0.239455 1.27019 -6.1541e-19)
(0.328066 1.26446 1.01829e-18)
(0.988394 0.00861603 0)
(0.944241 0.00704182 0)
(1.00033 0.000594367 0)
(1.00277 0.00939289 0)
(1.00251 0.0085039 -1.04989e-18)
(0.992007 0.00980511 7.92922e-19)
(-0.0099465 1.59642 0)
(-0.00617432 1.47364 0)
(-0.0155962 1.67659 0)
(-0.0122401 1.62431 0)
(0.000585942 1.5026 0)
(0.246127 0.283743 1.45378e-19)
(0.287287 0.26626 0)
(0.99332 -0.00856742 0)
(0.953945 -0.00671061 0)
(0.869099 0.017608 0)
(0.835359 0.0340094 0)
(0.787585 -0.00960048 0)
(1.02243 -0.00555033 0)
(0.78316 0.040807 0)
(0.65748 -0.0173377 7.46706e-19)
(-0.0354309 2.8661 3.17176e-19)
(0.0438366 2.90729 0)
(0.0572645 2.88282 0)
(-0.00616232 2.69627 0)
(-0.0130434 2.98539 5.85019e-19)
(-0.0183189 2.89569 0)
(-0.0153278 2.98815 -1.85381e-18)
(-0.0135322 2.92528 6.40489e-19)
(-0.00832691 1.81344 0)
(-0.00653747 1.80817 0)
(-0.00125041 1.64491 -3.20663e-22)
(-0.00207978 1.61908 0)
(-0.00632674 1.51679 0)
(0.932154 -0.00197228 0)
(0.865965 -0.00102508 0)
(0.856629 0.00739266 0)
(0.938671 -0.00338217 0)
(0.881664 -0.00496372 0)
(0.486217 1.1029 3.97931e-20)
(0.540833 1.16672 0)
(0.334812 0.831365 2.32371e-21)
(0.278228 0.694196 0)
(0.957275 1.08574 -2.8123e-19)
(1.0719 0.898468 5.7993e-19)
(0.403825 1.3355 0)
(0.582574 1.3408 0)
(0.529651 1.28495 0)
(0.101286 0.110882 -1.04488e-19)
(0.555391 0.279126 0)
(0.542342 0.183323 1.10262e-19)
(1.0435 0.945687 0)
(1.11371 0.791994 0)
(1.14002 0.738813 -5.08043e-19)
(1.17145 0.631146 0)
(1.22315 0.41458 6.08042e-20)
(0.951686 -0.00667656 0)
(0.960841 -0.00956911 0)
(0.899697 -0.00776228 0)
(0.984068 -0.00885491 0)
(0.975753 -0.00823691 0)
(0.938144 -0.00609875 0)
(1.00009 0.00225181 0)
(1.00079 0.00142184 0)
(0.999924 0.000785432 0)
(0.0482573 1.72991 2.83577e-19)
(0.0837217 1.52511 0)
(0.0247504 1.75562 4.60127e-19)
(0.0282363 1.5954 -3.90627e-19)
(0.0714769 1.2018 -5.08907e-19)
(-0.0285667 1.21188 0)
(0.0856854 1.11155 0)
(-0.011985 1.44771 0)
(0.00702609 1.30881 0)
(-0.00811051 1.69178 -1.14786e-21)
(-0.00721568 1.5927 0)
(-0.00246564 1.68349 -5.40678e-20)
(-7.42766e-05 1.57031 1.04135e-19)
(-0.00880668 1.48586 0)
(-0.0048252 1.51033 0)
(0.0040706 1.33531 0)
(-0.0168296 1.55939 0)
(-0.0117754 1.40474 0)
(0.969418 0.0141085 0)
(0.917273 0.00430929 0)
(0.952917 0.00801497 0)
(0.8889 0.00166289 0)
(0.838915 -0.00589934 0)
(0.920435 -0.000287573 0)
(0.913398 0.00709787 0)
(0.837414 -0.00227453 0)
(0.00605701 3.06482 -5.93741e-21)
(0.0163539 3.05818 0)
(0.0147829 2.96922 0)
(0.00859052 2.87638 0)
(0.929178 3.99035 0)
(1.24429 3.31866 1.01699e-18)
(0.071722 3.08432 0)
(-0.0259645 2.9123 0)
(-0.0102778 1.79327 0)
(-0.011384 1.78911 0)
(-0.00971339 1.79065 0)
(-0.00336565 1.79675 4.66597e-21)
(-0.0100351 1.79134 0)
(-0.00408147 1.79005 0)
(-0.00346817 1.54859 1.66279e-21)
(-0.00527155 1.6703 3.29487e-20)
(-0.00501496 1.65837 2.60292e-20)
(-0.00377777 1.5369 0)
(0.684458 0.127617 2.80415e-19)
(0.642252 0.0371507 -2.72857e-19)
(0.190461 1.38523 0)
(0.294321 0.806364 -2.49742e-19)
(0.153307 1.47851 -7.52857e-19)
(0.218398 1.22758 7.50893e-19)
(0.900816 0.0101441 0)
(0.967665 0.013265 0)
(0.976256 0.0122652 0)
(0.924755 0.00956381 0)
(-0.0174968 1.57608 0)
(-0.0149873 1.58865 0)
(-0.0110023 1.43802 0)
(0.442074 0.33923 3.74185e-19)
(0.362255 0.317545 -4.54296e-19)
(0.380844 0.243699 0)
(1.13862 0.0832786 -3.82646e-21)
(1.12322 0.0385341 0)
(1.05602 0.0327514 0)
(0.971037 0.0043797 0)
(0.699225 0.0817945 0)
(0.723077 0.0589139 -1.20089e-18)
(0.644344 0.0116327 4.59233e-19)
(0.0100371 2.98261 4.08596e-19)
(-0.031738 2.86838 4.91228e-20)
(0.00390701 3.05006 -1.28409e-20)
(0.0198675 3.0437 4.63033e-19)
(-0.0150732 2.9965 2.13109e-20)
(-0.0129646 2.94939 -8.63969e-23)
(-0.0172818 3.01208 -4.049e-19)
(0.0146391 3.02444 2.92047e-19)
(0.00716164 3.03654 -4.56104e-19)
(0.947583 0.00781451 0)
(0.940979 0.00450378 0)
(0.873214 0.00262717 0)
(0.954871 0.0125504 0)
(0.939135 0.0136644 0)
(0.877655 0.00837135 0)
(0.921135 -1.17104e-05 0)
(0.921521 0.00750198 0)
(0.840943 -0.00168061 0)
(0.701528 1.40229 3.34647e-19)
(0.742018 1.51733 0)
(0.218887 0.387352 2.38594e-20)
(0.177194 0.527414 1.74454e-19)
(0.252191 0.645253 -8.97687e-20)
(0.209916 0.539135 1.62868e-19)
(0.290379 0.643891 6.00349e-19)
(0.12075 0.139605 1.86718e-19)
(0.599775 0.226254 4.14164e-19)
(0.575549 0.246766 1.01174e-19)
(0.552007 0.158859 2.10132e-19)
(1.21073 0.469822 2.9981e-19)
(1.22668 0.261731 3.14276e-19)
(0.0110929 1.75554 1.80692e-19)
(0.0162525 1.61357 0)
(1.01002 0.0248595 0)
(0.982272 0.0151962 0)
(0.938748 -0.0022142 0)
(0.0108578 3.07444 0)
(0.0199614 2.94416 7.90488e-19)
(0.0165738 2.95641 0)
(0.00615775 2.85084 -7.83995e-19)
(0.00614049 3.09162 1.87127e-19)
(0.0074565 3.08263 0)
(0.777709 1.82607 -2.39351e-19)
(1.25041 2.51414 6.58467e-19)
(0.762857 1.96899 -1.49634e-18)
(0.0212405 2.98465 -2.94466e-19)
(0.0374409 3.00828 0)
(-0.0315613 2.88296 0)
(-0.000509483 1.66514 -5.97229e-21)
(-0.00369177 1.67501 -7.31045e-20)
(-0.00101963 1.56193 -5.82181e-21)
(0.277731 1.28318 7.14603e-19)
(0.253552 0.563361 -4.88909e-19)
(0.0663119 1.66712 4.85846e-19)
(0.099891 1.57813 -6.0022e-19)
(0.12157 1.40278 7.8626e-20)
(0.00351437 3.11789 -1.10057e-18)
(0.0177499 3.11788 1.17652e-18)
(-0.0086204 2.98103 5.05732e-19)
(-0.00249105 2.97783 -4.45468e-19)
(-0.0215468 2.88263 -5.15071e-19)
(0.00891292 3.0987 -1.36975e-18)
(0.00217254 3.10665 1.33063e-18)
(0.186493 0.563928 0)
(0.117837 0.525562 -3.82624e-19)
(0.154295 0.204479 1.62355e-19)
(0.330135 0.787848 5.75068e-19)
(0.186163 0.196259 -8.79998e-19)
(1.2206 0.170835 -5.79618e-20)
(1.22403 0.312795 0)
(1.20789 0.118914 1.23645e-19)
(-0.0076332 1.72623 -1.46208e-21)
(-0.00185464 1.74067 0)
(0.000853066 1.60238 0)
(0.361735 1.17235 -2.31456e-19)
(0.384705 1.00898 -5.04399e-19)
(0.183711 0.323083 8.50314e-19)
(1.00566 -0.0111184 0)
(1.00776 -0.00792838 1.91416e-19)
(-0.00805714 1.80252 0)
(-0.0145121 1.81032 0)
(1.00255 0.00373802 1.91095e-21)
(1.00284 0.00893862 3.93717e-19)
(-0.00423694 1.80113 -6.24126e-21)
(-0.00447851 1.80013 0)
(0.0401584 3.18432 9.99763e-20)
(0.400612 3.50492 0)
(1.09949 0.644467 6.53781e-20)
(1.01208 0.0126017 -2.55357e-21)
(1.01904 -0.0180416 0)
(1.00171 0.00032664 5.05123e-23)
(-0.148645 1.47213 0)
(-0.0131997 2.09739 0)
(-0.0213004 1.77085 0)
(-0.0345536 1.8594 7.12629e-20)
(-0.00724013 1.82993 4.31705e-20)
(1.00363 0.0105877 2.28765e-21)
(1.04581 0.0126319 0)
(1.07247 0.0229805 0)
(-0.0123879 1.78951 0)
(-0.00866489 1.81127 0)
(-0.0198979 1.79463 0)
(0.245296 1.18489 -4.28856e-19)
(1.01114 -0.0098647 0)
(1.00993 -0.0138303 0)
(1.00244 0.000747714 2.41758e-19)
(1.00603 -0.00526407 -2.88239e-19)
(1.00091 -0.000752161 0)
(-0.0136071 1.78882 0)
(-0.010886 1.79521 0)
(-0.0102869 1.79423 0)
(-0.0171644 1.79786 0)
(-0.0122964 1.79455 0)
(-0.0155538 1.79765 0)
(1.02342 0.00369911 0)
(1.02308 0.0106571 -1.04928e-21)
(0.796781 1.25176 5.28213e-19)
(1.00264 0.000417421 -2.42692e-19)
(1.00346 0.00558571 2.92743e-19)
(1.00122 0.00197568 0)
(1.01054 0.00982172 2.37175e-19)
(1.008 0.0083328 -2.94088e-19)
(1.00762 0.0142859 0)
(-0.0075604 1.81148 0)
(-0.00628559 1.80683 1.36334e-20)
(-0.00649154 1.80648 -9.39473e-21)
(1.181 0.258086 -7.44263e-20)
(1.11878 0.0794938 0)
(0.0568274 3.07905 -5.03431e-19)
(0.0695505 2.85098 -4.08667e-20)
(0.147855 3.20034 7.67033e-19)
(0.142556 3.22879 5.16838e-21)
(0.140397 3.24414 0)
(0.0222109 3.13864 1.07972e-19)
(0.0813824 3.16363 4.9146e-19)
(0.0748035 3.19076 -2.09207e-19)
(0.0262035 3.12857 0)
(0.708967 0.332014 0)
(0.61994 0.393648 0)
(1.08091 0.672595 -2.52166e-19)
(1.0734 0.807076 3.92909e-19)
(1.13206 0.560742 0)
(1.1643 0.508962 0)
(1.01546 0.0133999 -4.39985e-19)
(1.01384 0.0147397 5.48843e-19)
(1.01953 -0.0200056 0)
(1.01412 -0.0216394 0)
(1.00723 0.00265864 0)
(1.01021 0.00305391 0)
(1.00392 0.0026511 0)
(1.00979 0.00705433 0)
(1.00698 0.00568422 0)
(1.0057 0.00491082 0)
(-0.137977 1.49052 0)
(-0.112823 1.54547 0)
(-0.156009 1.42383 0)
(-0.0722337 1.36307 0)
(-0.0452921 2.15238 0)
(0.0581584 2.15462 -3.07007e-19)
(-0.0125988 2.0915 0)
(-0.0100605 2.02205 1.55185e-19)
(-0.0279662 1.92938 -1.38971e-19)
(-0.0207306 1.77216 0)
(-0.0180426 1.77452 0)
(-0.0316399 1.75919 0)
(-0.0247969 1.72866 0)
(-0.0563742 1.82855 -4.3435e-20)
(-0.0175602 1.83779 5.9184e-20)
(-0.0329167 1.85782 7.16493e-20)
(-0.0166593 1.84595 0)
(-0.00748955 1.8307 -9.35816e-20)
(-0.00725584 1.82589 -5.14803e-20)
(-0.0502299 1.82302 3.37711e-20)
(-0.029533 1.83182 -7.72103e-20)
(-0.0337773 1.84288 -9.32437e-20)
(1.01093 0.0164708 4.32245e-19)
(1.01034 0.00378455 -5.32461e-19)
(1.00548 0.0202688 -4.50919e-19)
(0.992726 0.0156926 5.69846e-19)
(1.03946 0.0180106 0)
(1.03979 0.0115329 0)
(1.06094 0.0415983 0)
(1.04744 0.0230849 0)
(1.05813 0.0125636 0)
(1.10363 0.0725484 0)
(1.07966 0.0466934 0)
(1.09154 0.0368555 0)
(-0.00966741 1.80193 -1.61772e-21)
(-0.0122471 1.79159 0)
(-0.0109495 1.79441 0)
(-0.0089659 1.81482 1.49427e-20)
(-0.00921122 1.815 -6.82663e-22)
(-0.0162609 1.78808 1.50619e-20)
(-0.0156124 1.7899 -1.53885e-20)
(-0.0180699 1.79435 0)
(-0.014622 1.79496 0)
(-0.014551 1.7953 0)
(-0.0206304 1.79331 0)
(-0.0220776 1.79101 0)
(0.42417 1.24107 8.98972e-19)
(0.397459 1.35629 3.2913e-19)
(0.581733 2.43469 -1.76311e-19)
(0.280744 2.37601 4.55788e-19)
(0.432042 2.39147 -1.69831e-19)
(1.01965 -0.0116849 0)
(1.01605 -0.00895171 0)
(1.01608 -0.016305 0)
(1.0084 -0.00117087 0)
(1.00454 -0.00143321 0)
(1.00703 -0.00479935 0)
(1.01036 -0.00349572 0)
(1.01286 -0.00518597 0)
(1.02305 0.0123458 4.23859e-19)
(1.01513 0.0201974 -5.37468e-19)
(1.02497 0.00581152 -4.23679e-19)
(1.02136 0.00370352 5.32231e-19)
(0.758676 1.27494 0)
(0.668322 1.35515 6.34353e-19)
(0.874668 1.18319 3.73081e-19)
(0.907169 1.16322 -4.95725e-19)
(1.11995 2.61375 -5.73437e-19)
(0.828698 0.0974467 2.87237e-19)
(1.12049 0.0930832 0)
(1.16001 0.170043 6.6149e-20)
(1.15427 0.149399 2.81549e-21)
(0.969448 0.125587 0)
(0.148104 2.97166 1.05885e-19)
(0.128461 2.87802 -6.34968e-19)
(0.0427597 2.3493 4.69908e-19)
(0.116906 0.132523 -1.93062e-19)
(0.345978 3.43252 -4.49242e-19)
(0.199422 3.32347 0)
(0.23988 3.36827 5.85054e-19)
(0.258551 3.04185 -6.75258e-19)
(0.348315 3.19925 0)
(0.00659645 3.12079 2.57846e-20)
(0.017619 3.12966 -3.32147e-19)
(0.0152798 3.12543 4.88872e-19)
(0.038128 3.14033 0)
(0.0370394 3.15196 0)
(1.20499 2.61912 0)
(0.507063 0.83521 -2.19688e-19)
(1.01337 0.979499 -2.07681e-19)
(0.961913 1.06082 0)
(0.805845 0.95792 6.30414e-20)
(1.03703 0.869205 3.20971e-20)
(0.405537 0.477939 -5.28519e-19)
(0.733069 0.323892 -2.25179e-20)
(0.72063 0.282347 2.19296e-19)
(0.619518 0.429826 1.75192e-20)
(0.560091 0.423022 -7.21179e-19)
(0.709899 0.35998 0)
(0.699356 0.435 3.64066e-19)
(0.708986 0.429719 0)
(0.663043 0.412788 0)
(0.675 0.350098 0)
(0.733701 0.602033 1.26997e-19)
(1.17299 0.270011 4.166e-20)
(1.17419 0.405388 0)
(1.18779 0.367817 0)
(0.775243 0.212296 3.2647e-19)
(0.777662 0.529965 -1.82223e-19)
(0.691794 0.510296 2.93244e-19)
(0.891102 0.398087 -2.72858e-19)
(1.01824 0.0182607 2.89887e-19)
(1.01746 0.0140908 -2.95516e-19)
(1.01307 0.0196442 0)
(1.02138 -0.00170612 0)
(1.01891 -0.0164526 -2.65747e-19)
(1.00773 -0.0169183 2.63037e-19)
(1.03526 0.00515707 0)
(1.03011 0.00807591 0)
(1.01187 0.00380037 0)
(1.01481 0.00843752 0)
(1.01938 0.00264387 0)
(1.01491 0.000809754 0)
(-0.0990408 1.59374 0)
(-0.0675932 1.62866 0)
(-0.247188 1.40398 1.89609e-19)
(0.189364 1.25097 2.39787e-19)
(-0.0540981 1.30731 4.71294e-19)
(0.0908605 1.23077 -7.85527e-19)
(-0.168396 1.40085 0)
(-0.33594 1.97246 2.53883e-19)
(-0.328216 1.94271 0)
(0.219128 2.44482 2.49946e-19)
(0.0731132 2.52992 2.38681e-19)
(-0.334169 1.93626 -2.23645e-19)
(0.0965763 1.186 2.70776e-19)
(-0.161565 1.36635 -2.12308e-19)
(0.113944 1.19485 7.42537e-19)
(-0.170294 1.95253 0)
(-0.0111283 2.00451 -5.27693e-19)
(-0.103478 1.8923 -3.12995e-20)
(-0.0268399 1.94743 0)
(-0.0930878 1.94688 1.3004e-19)
(-0.0904836 1.91286 0)
(-0.0148296 2.00124 -1.65905e-19)
(-0.0140084 1.97684 0)
(-0.0500888 1.79269 -3.24135e-20)
(-0.0638763 1.80541 0)
(-0.0664498 1.76391 0)
(-0.055245 1.77814 3.65309e-20)
(-0.039458 1.87253 -4.22823e-21)
(-0.0328467 1.91511 1.63613e-19)
(-0.0323386 1.89663 1.12961e-21)
(-0.0269123 1.81323 2.88568e-20)
(-0.0340484 1.80892 1.86695e-20)
(-0.0218589 1.77775 0)
(-0.0229022 1.77829 0)
(-0.10315 1.84726 7.36388e-20)
(-0.0950091 1.76856 4.74797e-20)
(-0.0923891 1.8088 -6.82238e-20)
(-0.142182 1.86513 0)
(-0.0137336 1.80584 -5.04458e-20)
(-0.0129388 1.81428 2.35473e-20)
(-0.0133463 1.8133 -7.72789e-21)
(-0.0217996 1.81321 -3.50875e-20)
(-0.0145252 1.81869 -1.21081e-20)
(-0.0150503 1.82434 6.23731e-20)
(1.02201 0.00283529 -2.83346e-19)
(1.01729 0.00965416 2.87091e-19)
(1.01729 0.00265536 0)
(0.997162 0.0455106 4.02675e-19)
(0.992382 0.0322983 -4.78858e-19)
(0.964782 0.0241352 5.54385e-19)
(0.992484 0.0815622 -5.34323e-20)
(1.02499 0.00888082 0)
(1.03191 0.0116992 2.43941e-19)
(1.02948 0.00826178 -2.39099e-19)
(1.03341 0.0405137 -1.32684e-20)
(1.03666 0.0263519 1.16871e-19)
(1.02754 0.0523797 0)
(1.02297 0.043258 -4.39117e-20)
(1.01955 0.0220978 0)
(1.0186 0.0206208 0)
(1.03604 0.0060887 0)
(1.02947 0.00476155 0)
(1.02671 0.0227536 9.05348e-20)
(1.02891 0.0164021 -2.033e-19)
(1.02787 0.0289509 -9.17658e-20)
(1.0276 0.0295983 -1.06976e-19)
(1.02519 0.0528752 1.91921e-19)
(1.0621 0.0492362 0)
(1.05312 0.0891901 0)
(-0.0138666 1.80593 -2.08714e-20)
(-0.0132246 1.79568 -1.85799e-21)
(-0.0147104 1.79452 0)
(-0.00970105 1.80786 2.21598e-20)
(-0.0095494 1.80301 3.32476e-21)
(-0.00937823 1.80629 -3.63945e-21)
(-0.00884224 1.82406 4.56901e-20)
(-0.0135467 1.81718 -2.70318e-21)
(-0.013754 1.81714 1.28709e-20)
(-0.00985788 1.81938 -2.33525e-20)
(-0.00968913 1.82006 2.75972e-20)
(-0.018454 1.78998 3.80956e-22)
(-0.0180844 1.79031 2.33919e-20)
(0.451636 1.14601 -4.96064e-19)
(0.458619 1.32955 -7.59172e-19)
(0.649699 1.36314 -6.13459e-19)
(0.536426 1.37105 -3.1572e-19)
(0.530032 1.40013 0)
(0.620781 2.4016 1.21371e-19)
(0.670983 2.4091 2.20484e-19)
(0.294085 2.46792 9.1778e-20)
(0.265014 2.62273 -1.84302e-19)
(0.36549 2.59576 1.93513e-19)
(0.511644 2.4665 0)
(0.486089 2.40258 -3.7495e-19)
(0.0271358 2.27529 7.84005e-19)
(0.18421 2.391 -5.63983e-20)
(0.171528 2.26684 -1.02893e-18)
(0.911445 2.3373 1.6568e-19)
(0.838516 2.36882 0)
(1.01043 -0.000830997 9.58451e-21)
(1.01343 -0.00572886 -7.89752e-21)
(1.01559 -0.00736764 -1.42818e-19)
(1.01408 -0.00791518 1.43251e-19)
(1.01309 -0.00120185 0)
(0.656357 1.26649 0)
(0.650585 1.17453 0)
(0.755056 1.05506 0)
(0.635337 1.12055 0)
(1.15368 2.6324 5.30661e-20)
(1.02755 2.34575 0)
(0.773506 2.22944 -7.07555e-22)
(0.87672 2.47101 0)
(0.92899 2.54619 -2.30047e-20)
(0.929029 2.50618 1.56187e-20)
(0.833982 0.137498 0)
(0.800623 0.159571 8.27932e-20)
(0.903006 0.120393 4.22853e-19)
(0.859986 0.108386 -1.70751e-19)
(0.85734 0.0710947 -5.082e-19)
(1.02074 0.216667 -2.40984e-19)
(0.955161 0.259961 -1.56956e-20)
(0.894801 0.254139 3.73019e-19)
(0.965235 0.206092 2.8446e-19)
(0.926117 0.163121 -5.29132e-19)
(0.893264 0.175125 6.80335e-20)
(0.914532 0.236167 -1.33106e-19)
(0.896092 0.195533 0)
(0.969992 0.165465 2.53215e-19)
(0.999918 0.16692 0)
(0.996433 0.198568 0)
(1.05099 0.0950933 8.12901e-20)
(1.0169 0.152415 -1.23913e-20)
(1.01232 0.215778 -4.45655e-20)
(1.04558 0.182861 0)
(1.01184 0.0242925 2.17473e-19)
(1.018 0.0434568 2.56797e-19)
(1.0175 0.0279519 -2.1571e-19)
(1.01053 0.0479758 -1.72872e-19)
(1.00017 0.0488202 -2.84875e-19)
(0.97431 0.128028 0)
(0.986835 0.0803424 0)
(0.966203 0.0474318 -2.01107e-19)
(0.929467 0.0553982 8.32472e-20)
(0.996058 0.0782636 2.44169e-19)
(1.01517 0.0946313 -2.46531e-19)
(1.02409 0.123664 2.24473e-19)
(0.996831 0.11942 0)
(1.02686 0.0850348 0)
(1.01463 0.0717809 -1.04252e-19)
(1.01165 0.0745544 -1.96681e-19)
(0.530843 1.08963 -1.0585e-19)
(0.597892 1.55154 1.98753e-19)
(1.13062 2.79424 1.50672e-19)
(1.21627 3.11244 -7.64961e-20)
(1.22363 2.74368 5.85026e-19)
(1.26359 2.72569 -3.48688e-19)
(1.18167 2.34288 -3.56541e-21)
(1.19899 3.01819 2.26955e-19)
(1.21037 2.98407 -2.71139e-19)
(1.21026 3.26199 -2.75075e-19)
(1.37066 2.99087 3.81347e-19)
(1.3666 2.90133 0)
(0.510367 0.843926 -1.01715e-20)
(0.155333 1.29906 3.54373e-19)
(0.514734 0.550252 3.50025e-19)
(0.336395 0.320261 3.78867e-19)
(0.555911 0.453798 4.03338e-19)
(0.54009 0.501163 -6.36253e-19)
(0.541921 0.528604 5.20524e-19)
(0.514661 0.483013 -2.09063e-19)
(0.479582 0.435368 4.83768e-19)
(0.776446 0.256171 -1.81806e-19)
(0.74526 0.298326 0)
(0.742871 0.255247 1.15177e-20)
(0.68328 0.523623 1.86541e-19)
(0.664863 0.489404 -6.89454e-19)
(0.60095 0.504317 1.9826e-20)
(0.621529 0.481414 0)
(0.629091 0.729793 1.38526e-19)
(0.773413 0.774742 4.8309e-20)
(0.705428 0.846483 -6.48485e-20)
(0.813197 0.800264 -1.62193e-20)
(0.8686 0.83349 1.59491e-20)
(0.874782 0.842908 -1.63202e-20)
(0.781822 0.623369 -2.18951e-19)
(0.866241 0.683206 1.50672e-20)
(0.928935 0.694064 0)
(0.919879 0.668114 -1.3718e-20)
(0.974997 0.295927 6.07764e-20)
(1.06808 0.275718 7.55452e-21)
(1.00593 0.255266 9.82989e-20)
(0.949603 0.327811 -1.40671e-19)
(0.986585 0.397197 0)
(1.0517 0.384199 0)
(0.88031 0.325855 5.54683e-21)
(0.840061 0.272413 0)
(0.838361 0.251396 1.96114e-19)
(0.889824 0.257153 -5.33976e-21)
(0.880265 0.401305 7.46853e-19)
(0.825343 0.46619 1.91833e-19)
(0.833611 0.430815 -2.42192e-19)
(0.776985 0.418846 2.60165e-19)
(0.761151 0.420922 1.80257e-19)
(0.756367 0.415071 -1.76329e-19)
(1.02513 -0.00844994 2.26327e-19)
(1.02726 -0.00787735 0)
(1.0253 -0.0106239 1.53764e-19)
(1.0236 -0.0135561 -3.38608e-19)
(1.03516 0.000478995 1.66793e-19)
(1.02889 0.00937667 -3.52363e-19)
(1.02721 0.0131088 0)
(1.02129 0.0139768 -7.34268e-20)
(1.02267 0.00654523 1.83186e-19)
(1.01785 0.0116808 -9.31694e-20)
(1.02125 0.013618 6.9403e-20)
(-0.0440531 1.72119 0)
(-0.0764693 1.75216 0)
(-0.0591043 1.67034 0)
(-0.0379194 1.68307 0)
(-0.221099 1.68467 -1.29782e-19)
(-0.216766 1.56148 2.94571e-20)
(-0.293929 1.93132 1.89041e-20)
(-0.373017 1.70125 -1.39821e-19)
(-0.128284 1.77079 -2.64249e-20)
(-0.143407 1.765 1.77754e-20)
(-0.179644 1.67455 1.83096e-20)
(-0.155656 1.68966 4.37782e-20)
(-0.109813 1.71367 3.61988e-21)
(-0.101762 1.73555 -2.13224e-21)
(-0.124823 2.01879 -1.36622e-19)
(-0.133359 2.0812 0)
(-0.255343 2.1178 3.12305e-20)
(-0.298604 1.9714 8.84651e-21)
(-0.209507 2.28674 2.79436e-20)
(-0.107146 2.41089 0)
(-0.0773337 2.44793 -1.72848e-19)
(-0.018533 2.50899 1.22981e-19)
(-0.241669 2.21783 -9.18922e-21)
(-0.250302 2.17836 -3.42695e-20)
(-0.17678 2.28152 0)
(-0.08118 1.83608 -9.83787e-20)
(-0.0672947 1.83996 -1.45576e-19)
(-0.0693179 1.83304 0)
(-0.0737138 1.87511 -4.82473e-21)
(-0.0910674 1.87214 5.30238e-20)
(-0.0267513 1.79022 5.52418e-21)
(-0.0226837 1.78978 -8.39645e-20)
(-0.0262655 1.7943 1.7402e-20)
(-0.0304213 1.79598 3.51093e-20)
(-0.0364609 1.79759 0)
(-0.0257733 1.794 0)
(-0.025296 1.78749 2.57363e-20)
(-0.0259234 1.79139 -8.19581e-21)
(-0.0261937 1.79228 0)
(-0.0247429 1.7821 1.93084e-20)
(-0.023638 1.78342 -3.80139e-20)
(1.0301 0.0181872 0)
(1.03192 0.0176222 -2.18708e-20)
(1.03221 0.0174344 -1.63732e-19)
(1.03083 0.0186399 0)
(1.03066 0.0208059 0)
(1.03443 0.0109596 -5.00711e-21)
(1.03451 0.0103563 2.70565e-19)
(1.03023 0.00899289 3.33577e-19)
(1.02938 0.00607604 0)
(1.02341 0.00483033 0)
(1.02702 0.0154857 1.66339e-19)
(1.02193 0.0125804 0)
(1.02301 0.00966538 0)
(-0.0166916 1.8074 0)
(-0.018774 1.79077 1.91074e-21)
(-0.0181373 1.79887 1.1948e-20)
(-0.0255371 1.79252 0)
(-0.0212731 1.79318 1.57117e-20)
(-0.0203047 1.79219 -7.65646e-21)
(-0.023023 1.79127 0)
(0.644011 1.69865 0)
(0.537964 1.32455 1.13076e-18)
(0.479047 1.76557 0)
(0.627433 1.22141 -1.20209e-18)
(0.554336 1.25871 0)
(0.580405 1.22087 5.16788e-19)
(1.01503 2.67862 -3.86754e-21)
(0.938502 2.35554 -2.07655e-19)
(0.848905 2.06652 3.45602e-19)
(0.847336 2.35429 9.46825e-20)
(0.893225 2.49778 0)
(0.92099 2.48745 0)
(0.888267 2.33783 0)
(0.888528 2.30232 -3.71544e-19)
(0.757461 2.51375 1.01358e-20)
(0.882713 2.47053 -1.11705e-20)
(0.879823 2.45209 8.47211e-21)
(0.711168 2.38188 0)
(0.803694 2.3713 0)
(0.763245 2.39206 -2.09969e-19)
(0.852793 2.50752 0)
(0.59084 1.08133 0)
(0.480184 0.905826 4.29819e-20)
(0.528663 0.939488 1.75269e-21)
(0.491451 1.03055 0)
(0.509003 0.980876 -6.56407e-20)
(0.723229 0.868498 1.87926e-20)
(0.764542 0.990496 0)
(0.74179 0.969669 -7.30706e-20)
(0.635016 1.00101 0)
(0.616246 0.919503 0)
(1.13416 2.79718 6.54675e-20)
(1.11229 2.86528 1.24151e-19)
(0.882726 2.4055 -2.8652e-19)
(0.852374 2.38301 2.92884e-20)
(1.09511 2.75409 0)
(1.05251 2.71784 -3.63155e-20)
(1.05256 2.47489 -5.55169e-20)
(0.930784 2.18546 -2.44013e-20)
(0.483012 1.43269 0)
(0.459223 1.09614 9.3158e-20)
(0.551024 1.19823 0)
(0.835897 0.217975 0)
(0.808274 0.181076 0)
(0.772469 0.193655 0)
(0.830469 0.218857 -3.11261e-19)
(0.785983 0.219996 1.91301e-19)
(0.930661 0.053035 -1.65405e-19)
(0.938351 0.101722 0)
(0.923026 0.103856 7.88511e-20)
(0.885552 0.0777139 3.23395e-19)
(0.886601 0.0578653 -1.9933e-19)
(1.16377 3.38274 -9.93305e-19)
(1.20897 3.30449 0)
(1.16582 3.40621 -1.94902e-18)
(0.655859 3.56616 1.67535e-18)
(0.883796 3.12443 3.95131e-19)
(0.494957 0.86103 2.02008e-19)
(0.442781 0.838505 0)
(0.344758 0.5683 -7.93093e-20)
(0.406133 0.687206 3.56457e-19)
(0.510622 0.546432 -1.08349e-19)
(0.496321 0.566578 1.22327e-19)
(0.6195 0.542629 2.61319e-19)
(0.635563 0.554839 0)
(0.586934 0.628588 0)
(0.552849 0.565513 0)
(0.912259 0.581029 -5.33771e-20)
(0.83205 0.518038 -1.85268e-19)
(0.859406 0.558821 8.69298e-20)
(0.899728 0.493734 -1.3362e-19)
(1.00656 0.463187 0)
(1.01305 0.547014 -5.43641e-21)
(0.821487 0.364533 -3.90723e-19)
(0.828594 0.351264 -4.48368e-19)
(0.810538 0.36758 3.06e-19)
(0.803984 0.333113 -3.48301e-19)
(0.832356 0.295853 -2.60197e-19)
(0.803771 0.298096 3.18355e-19)
(1.03815 0.00185909 -1.74533e-19)
(1.03949 0.00281391 3.54772e-19)
(1.02717 -0.00190856 2.17172e-19)
(1.03295 0.00270469 -2.5888e-19)
(1.03195 0.0151351 0)
(1.03528 0.0115162 -4.26523e-19)
(-0.146718 1.86705 3.04766e-20)
(-0.163237 1.86305 0)
(-0.22754 1.93378 1.63531e-20)
(-0.254539 1.96226 -1.5471e-21)
(-0.2787 1.91495 -3.43072e-20)
(-0.238782 1.90206 0)
(-0.0194055 1.81008 0)
(-0.0248543 1.79926 -8.74354e-21)
(-0.0243147 1.79489 7.79969e-21)
(-0.0230847 1.79536 1.98727e-21)
(-0.0196168 1.8069 -1.56511e-20)
(-0.0178635 1.80935 1.01816e-20)
(0.58787 1.42444 3.87448e-19)
(0.625093 1.47156 -4.14043e-19)
(0.630556 1.27449 4.98337e-19)
(0.754535 1.4132 -2.6521e-20)
(0.644614 1.28117 0)
(0.613952 1.30601 5.61657e-19)
(0.615587 1.33078 -5.54321e-19)
(0.606175 1.24059 -4.87627e-19)
(0.637352 1.26453 0)
(0.592015 1.26486 0)
(0.799217 2.52042 -1.5285e-20)
(0.759303 2.52304 3.92504e-19)
(0.819438 2.53865 -2.66392e-19)
(0.719237 2.54616 -1.08837e-19)
(0.590984 2.71264 -5.12614e-21)
(0.4724 2.74673 -1.1826e-19)
(0.951442 2.31157 -1.92823e-19)
(0.982906 2.35672 0)
(0.861172 2.07443 -2.06576e-19)
(1.0284 2.6987 0)
(1.01211 2.67104 0)
(0.632806 2.28469 2.7448e-19)
(1.04259 3.18075 5.03377e-19)
(0.920772 3.04667 -4.57125e-19)
(0.29147 0.975705 0)
(0.346581 0.850697 -1.45068e-19)
(0.497009 0.778268 -5.35226e-20)
(0.429919 2.05472 0)
(0.47162 2.7882 -2.74917e-19)
(0.441987 2.55751 0)
(0.63374 0.68727 -2.87547e-19)
(0.709964 0.674263 3.74518e-19)
(0.735246 0.619366 -3.64993e-19)
(0.605877 0.644517 -4.39491e-20)
(0.669555 0.596431 -1.82418e-19)
(1.00922 2.7974 -3.82504e-19)
(1.02715 2.85569 3.33984e-19)
(0.673114 2.22516 -2.69111e-20)
(0.593963 1.73148 -1.4271e-20)
(0.710426 1.95485 1.94287e-19)
(0.985342 2.50087 -3.70083e-20)
(0.985925 2.5202 -2.236e-19)
(0.693271 1.89982 -9.75325e-21)
(0.454867 1.35274 -1.27594e-19)
)
;

boundaryField
{
    wall-4
    {
        type            noSlip;
    }
    velocity-inlet-5
    {
        type            fixedValue;
        value           uniform (1 0 0);
    }
    velocity-inlet-6
    {
        type            fixedValue;
        value           uniform (0 3 0);
    }
    pressure-outlet-7
    {
        type            zeroGradient;
    }
    wall-8
    {
        type            noSlip;
    }
    frontAndBackPlanes
    {
        type            empty;
    }
}


// ************************************************************************* //
