/*--------------------------------*- C++ -*----------------------------------*\
| =========                 |                                                 |
| \\      /  F ield         | OpenFOAM: The Open Source CFD Toolbox           |
|  \\    /   O peration     | Version:  4.0                                   |
|   \\  /    A nd           | Web:      www.OpenFOAM.org                      |
|    \\/     M anipulation  |                                                 |
\*---------------------------------------------------------------------------*/
FoamFile
{
    version     2.0;
    format      ascii;
    class       volScalarField;
    location    "35";
    object      p;
}
// * * * * * * * * * * * * * * * * * * * * * * * * * * * * * * * * * * * * * //

dimensions      [0 2 -2 0 0 0 0];

internalField   nonuniform List<scalar> 
918
(
0.621938
1.27356
0.0074837
0.621254
0.0149908
1.24061
-0.436358
0.789114
0.602073
-0.0263408
0.0361585
0.59689
1.10117
0.867309
-1.06276
0.0930091
0.739961
-0.316201
0.601076
0.0230649
0.823836
0.608667
0.611702
0.60229
0.664073
0.848826
0.982019
0.00648068
-0.0133874
-0.00873193
0.0703224
0.067177
0.0626118
1.12425
1.17535
1.19803
0.570457
0.396075
-0.29609
-0.366324
-0.359003
-0.482838
0.780659
0.78287
-0.105056
0.790439
0.800062
0.589298
0.601434
0.60232
0.603425
0.60237
0.603768
0.478151
-0.0320998
-0.0648443
-0.00595012
0.00524732
0.138168
0.0379553
0.0349832
0.0382107
0.0432612
0.521608
0.592834
0.589996
0.601906
0.610062
1.21311
1.18501
1.21116
1.12486
1.14136
1.07913
1.05179
0.887917
0.909738
0.853184
0.842099
-1.50091
-2.46382
-0.466515
-0.211826
-0.0154725
0.0883096
0.0966901
0.73099
0.729953
0.741299
0.753594
1.1472
-0.311459
-0.43412
0.601204
0.6
0.608396
0.609091
0.605103
0.604198
0.0293941
0.0347377
0.0034553
0.0197585
0.0186944
0.813114
0.811624
0.602834
0.599855
0.617342
0.638018
0.629867
0.354375
0.668166
0.680962
0.67024
0.838135
0.832797
0.841254
0.955405
0.919163
1.01925
1.04234
-0.020702
-0.0287831
0.0739314
0.0714933
0.0880761
0.566409
0.559173
0.585207
0.57381
0.576216
0.31167
0.176632
0.481815
0.507145
-0.206824
-0.268922
-0.370786
-0.389109
-0.501143
0.671197
0.770792
0.77069
-0.125384
-0.0468685
-0.181733
0.0262343
-0.0339232
0.579718
0.586623
0.581686
0.59705
0.59156
0.593504
0.605659
0.602735
0.604297
0.541802
0.665647
0.404138
0.370758
-0.176695
-0.0842227
-0.178876
0.0173341
0.0228421
0.148258
0.174825
0.12711
0.11609
0.0280711
0.0349375
0.0314324
0.049914
0.0479031
0.514758
0.504272
0.533838
0.541043
0.583248
0.584333
0.587484
0.586089
1.00248
1.02478
1.03246
1.00628
-3.46554
-6.2697
0.117696
0.256648
-0.0576165
-0.0414956
-0.0307892
0.0638024
-0.00142288
0.00709903
0.0919369
0.0891897
0.0929663
0.093478
0.715568
0.714755
1.06464
1.06304
1.04784
0.996535
0.589264
0.591389
0.596966
0.592801
0.0454276
0.0359188
0.0444834
0.799945
0.807225
0.806466
0.317767
0.232103
0.403109
0.430522
0.70135
0.685505
0.698805
0.731179
0.7685
1.04978
1.06811
1.06628
1.07479
1.11884
1.13525
1.10061
0.546575
0.556156
0.551336
0.588418
0.586105
0.58705
0.582516
0.584014
0.581779
0.0244643
-0.359297
0.561783
0.578585
0.5561
0.563789
0.749435
0.823483
0.753285
0.762679
0.761881
0.0918998
0.0352397
0.328734
0.293863
0.457293
0.491966
0.471997
0.973684
0.934232
0.984286
0.957495
0.918989
0.944295
-0.311003
-1.82544
-0.936079
0.612328
0.422988
0.511793
0.102366
0.0929924
0.0984426
1.05726
1.13643
0.722113
0.887806
0.897818
0.807815
0.837674
0.892573
0.818662
0.852665
0.887467
0.868008
0.627602
0.575065
0.583807
0.891957
0.947094
0.206164
0.151831
0.107685
0.194751
0.248641
0.22361
1.10155
1.00338
1.07478
0.599602
0.600294
-0.017683
0.00480741
0.604421
0.604466
0.0670777
0.0858948
0.494114
-0.772552
0.195455
0.592898
0.583176
0.600083
-0.007592
0.436006
0.0322811
0.134829
0.0933635
0.594316
0.531828
0.492942
-0.000932958
0.0799742
0.0315021
-0.138185
0.597275
0.595586
0.599545
0.600534
0.601191
-0.00705414
-0.000651045
-0.038119
0.0193001
0.0180174
0.0167813
0.564864
0.581977
-0.0913104
0.599661
0.601793
0.601604
0.594759
0.600456
0.598659
0.079148
0.0758166
0.0725356
0.302581
0.423195
0.741485
0.836681
0.707139
0.480088
0.241312
0.640846
0.706663
0.608884
0.767674
0.763848
0.782909
0.258603
0.111287
0.266826
0.208953
0.590764
0.589407
0.581409
0.578522
0.594935
0.593039
0.597586
0.594535
0.597525
0.598941
0.0300293
0.00831956
-0.00635834
-0.0684297
0.392464
0.653185
0.329948
0.361171
0.226173
0.0440644
0.0435983
0.0311607
0.0290372
0.0838099
0.0776793
0.130818
0.136411
0.113058
0.0922603
0.0787904
0.0752043
0.0683942
0.588089
0.586669
0.592755
0.601468
0.541094
0.544904
0.511279
0.530959
0.517143
0.45787
0.492379
0.467946
0.0486856
0.0340544
0.0274324
0.0763358
0.086447
0.0298135
0.0184957
0.0177245
0.0316563
0.0336225
0.0432338
0.0452251
-0.096602
-0.209205
1.05194
0.989966
0.192917
0.586475
0.59289
0.58968
0.594485
0.597586
0.598429
0.596191
0.592772
0.58255
0.584335
0.580732
0.581387
-0.0295555
-0.166852
0.00738565
-0.0605231
0.205754
0.694767
0.43607
0.376211
0.370396
0.592347
0.991913
0.787467
0.782531
0.805049
-0.276899
0.119856
-0.209772
0.408852
0.231036
0.738861
0.78978
0.812369
0.759317
0.71072
-0.0457777
0.614353
0.0187121
0.0642217
0.257444
0.148862
0.783625
0.747194
0.752904
0.770637
0.789902
0.752715
0.733096
0.728331
0.766412
0.770254
0.568263
0.335681
0.290933
0.251896
0.730622
0.609045
0.6665
0.578813
0.585683
0.588482
0.58705
0.569514
0.576848
0.572556
0.578337
0.581557
0.590678
0.591025
0.586432
0.588615
0.0283837
0.0272281
0.0441132
-0.062845
-0.0514638
-0.111417
0.0059747
0.145102
0.108458
0.302548
0.408899
0.121932
0.00621274
0.0356742
0.0681401
0.247286
0.271936
0.15049
0.24449
0.226274
0.212501
0.316161
0.324642
0.0599188
0.0507546
0.0493838
0.0482274
0.104759
0.174767
0.185315
0.0857297
0.0776545
0.0441336
0.0506709
0.0561922
0.0532797
0.0551587
0.0934331
0.00951268
0.0662067
0.085468
0.0882845
0.0834982
0.0787183
0.581354
0.583303
0.583086
0.590689
0.607304
0.622601
0.582351
0.56287
0.553841
0.556815
0.530461
0.54038
0.536579
0.549376
0.569711
0.578365
0.576542
0.579051
0.562431
0.5638
0.551148
0.554902
0.531141
0.512765
0.501131
0.0241183
0.0219637
0.0324071
0.0320044
0.0443265
0.0456077
0.0915215
0.103848
0.0869301
0.0882171
0.081627
0.0456327
0.0491823
-0.00478427
0.0734382
-0.112301
-0.144552
-0.213209
0.956168
1.07585
0.880943
0.657092
0.669478
0.908437
0.994423
0.619654
0.802917
0.826423
0.643662
0.907707
0.591303
0.590883
0.588477
0.587966
0.589201
0.0594185
0.160206
0.169035
0.223399
0.337962
0.45117
0.376818
0.252253
0.385417
0.390132
0.690104
0.705653
0.653613
0.677053
0.67455
0.502529
0.580776
0.635958
0.58829
0.634602
0.657118
0.617794
0.648337
0.593827
0.550119
0.54846
0.495903
0.516744
0.495051
0.476996
0.580823
0.558668
0.569044
0.560073
0.57929
0.604969
0.600693
0.629134
0.640138
0.564171
0.523767
0.533556
0.562273
0.522671
0.536028
0.551737
0.28931
0.188885
0.272796
-0.0193165
0.0616263
0.0464806
-0.000610688
0.0449661
0.330966
-0.367599
-0.3404
-0.973268
0.553863
1.02281
0.737031
0.709271
0.785654
0.764484
0.767204
0.790011
0.796963
0.720144
0.738429
0.741924
0.698812
0.722339
0.745112
0.742727
0.588242
0.462385
0.453839
0.413476
0.287948
0.321736
0.52433
0.446885
0.373041
0.376253
0.538855
0.427437
0.493756
0.532313
0.463902
0.418974
0.622918
0.689443
0.679537
0.65471
0.570626
0.584121
0.609194
0.645284
0.67243
0.704488
0.578154
0.583927
0.585208
0.582681
0.57989
0.582809
0.5829
0.585411
0.586267
0.589173
0.58816
0.0368383
0.048512
0.0377079
0.0300586
0.054242
0.0491558
0.0940209
0.0809267
0.0690326
0.0760914
0.0484099
0.0446486
0.0501685
0.0596191
0.16909
0.183436
0.169275
0.129358
0.314921
0.447472
0.516746
0.393805
0.287781
0.312659
0.336144
0.0652937
0.0947257
0.07965
0.120293
0.110373
0.0582804
0.0473977
0.0505241
0.0585562
0.0708488
0.0511318
0.0597052
0.0635121
0.0568972
0.0509967
0.0430416
0.564932
0.55853
0.559641
0.553909
0.552932
0.566338
0.570698
0.572412
0.577719
0.579667
0.570306
0.575671
0.579205
0.0842428
0.0583949
0.0579871
0.0654348
0.0640245
0.0628128
0.0633856
0.186574
0.112613
0.118105
0.0746267
-0.0505491
0.00581819
0.550981
0.548911
0.547708
0.778824
0.630035
0.549502
0.645823
0.75183
0.335699
0.534285
0.367596
0.947635
0.840666
0.986129
0.603935
0.302418
0.45675
0.506985
0.316338
0.388795
0.393716
0.283236
0.314745
0.346505
0.446928
0.325677
0.300115
0.0586375
0.247189
0.362846
0.343994
0.471487
0.534191
0.323041
0.24281
0.1977
0.682148
0.701419
0.721208
0.691258
0.715849
0.640206
0.630794
0.648812
0.656586
0.651721
-0.701758
-0.409824
-1.3538
-0.668977
-0.219823
0.583022
0.546952
0.825109
0.713113
0.777532
0.762896
0.723103
0.689369
0.700849
0.733372
0.432156
0.542853
0.517104
0.523106
0.424943
0.358182
0.657971
0.65211
0.687836
0.712027
0.679778
0.712895
0.575854
0.575488
0.575163
0.571607
0.57
0.572153
0.131401
0.102048
0.134248
0.117639
0.0959327
0.0836672
0.0805285
0.0737373
0.0703469
0.0675764
0.0849538
0.0825065
0.22852
0.170147
0.0926657
0.123548
0.0632789
-0.00314778
-0.0213954
0.0782417
0.171027
0.161218
0.466321
0.717132
0.538648
0.70688
0.54643
0.601998
0.537817
0.528696
0.557075
0.44161
0.521376
0.282456
-0.219873
-0.128902
0.839986
0.858632
0.640047
0.453818
0.225092
0.41441
0.614711
0.550745
0.58916
0.658159
0.65031
0.0696318
0.137172
0.395557
0.623576
0.293571
0.285043
0.280081
0.453887
0.378853
)
;

boundaryField
{
    wall-4
    {
        type            zeroGradient;
    }
    velocity-inlet-5
    {
        type            zeroGradient;
    }
    velocity-inlet-6
    {
        type            zeroGradient;
    }
    pressure-outlet-7
    {
        type            fixedValue;
        value           uniform 0;
    }
    wall-8
    {
        type            zeroGradient;
    }
    frontAndBackPlanes
    {
        type            empty;
    }
}


// ************************************************************************* //
