/*--------------------------------*- C++ -*----------------------------------*\
| =========                 |                                                 |
| \\      /  F ield         | OpenFOAM: The Open Source CFD Toolbox           |
|  \\    /   O peration     | Version:  4.0                                   |
|   \\  /    A nd           | Web:      www.OpenFOAM.org                      |
|    \\/     M anipulation  |                                                 |
\*---------------------------------------------------------------------------*/
FoamFile
{
    version     2.0;
    format      ascii;
    class       volVectorField;
    location    "35";
    object      U;
}
// * * * * * * * * * * * * * * * * * * * * * * * * * * * * * * * * * * * * * //

dimensions      [0 1 -1 0 0 0 0];

internalField   nonuniform List<vector> 
918
(
(0.985165 -0.000498685 0)
(0.005012 2.96625 0)
(-0.0309444 0.819581 0)
(0.979702 0.00215025 0)
(-0.0932947 1.62375 -5.96825e-20)
(-0.00704251 2.94879 -2.66054e-18)
(0.831441 1.17485 3.83884e-19)
(0.318185 0.145275 -1.75194e-20)
(0.999908 -0.00028782 0)
(0.0492567 0.834685 0)
(0.000854043 0.643426 0)
(0.734535 -0.0118613 0)
(0.011092 2.9304 0)
(0.00225567 2.79498 0)
(-0.0176632 3.15713 7.20369e-19)
(-0.0168846 1.82799 -8.52077e-20)
(0.391406 0.0451881 1.15505e-18)
(0.190428 1.18485 2.51723e-19)
(0.96279 0.00502378 0)
(-0.00471794 0.631184 0)
(0.07563 0.190739 -8.25202e-19)
(1.00198 -0.00498249 0)
(1.00022 -0.0097964 0)
(0.975719 -0.00644346 0)
(0.585807 -0.0373809 0)
(0.0161212 2.63848 0)
(-0.0149727 2.91007 9.92216e-19)
(-0.0282279 0.812102 0)
(-0.101793 1.01086 0)
(-0.0271842 0.802236 0)
(-0.198318 2.56811 0)
(-0.139065 1.79556 4.72528e-20)
(-0.0852677 1.62601 0)
(-0.0206167 2.9876 -9.62097e-23)
(-0.0166922 3.0053 2.06784e-18)
(0.00210047 3.00019 0)
(0.870558 -0.00948361 0)
(0.40324 0.936516 2.20455e-19)
(0.812319 1.19122 -3.80207e-19)
(0.960446 1.03006 4.47726e-19)
(0.681941 1.28435 -8.80725e-20)
(0.679431 1.27015 5.15024e-19)
(0.3598 0.231633 1.70917e-20)
(0.333464 0.115337 0)
(1.13599 0.55339 0)
(0.325073 0.228917 7.81229e-20)
(0.287056 0.154755 -8.10706e-20)
(0.919709 -0.00745611 0)
(1.00027 0.000138587 0)
(0.999909 0.000328282 0)
(1.00363 -0.00777755 0)
(1.00096 -0.000929844 0)
(1.00017 2.82914e-05 0)
(0.0800513 1.80064 -9.15876e-19)
(0.0332007 1.00128 0)
(0.0870588 0.90037 0)
(0.0170824 0.956378 0)
(0.0356016 0.770584 0)
(0.0227648 1.99943 0)
(0.00316452 0.810262 0)
(0.0236177 0.655757 0)
(-0.0051955 0.809103 0)
(-0.00675207 0.648956 0)
(0.836797 -0.0154727 0)
(0.850065 0.0278246 0)
(0.768137 -0.00203152 0)
(0.822875 0.0366991 0)
(0.702897 -0.0171681 0)
(0.0146902 3.0004 9.88936e-19)
(0.0115018 3.00798 0)
(0.00612086 3.00279 0)
(0.0135309 2.99734 1.12617e-23)
(0.00798221 2.95848 -1.4698e-18)
(0.0144899 2.98208 0)
(0.010834 2.9036 0)
(0.0245741 2.93085 2.31043e-24)
(0.00451467 2.82492 0)
(0.0304853 2.9162 0)
(-0.00539441 2.74462 0)
(0.308379 3.55391 0)
(-0.131915 3.63542 0)
(0.139614 3.24759 -6.70387e-19)
(-0.0125048 2.98292 0)
(-0.182872 2.34095 0)
(-0.0405304 2.05274 8.40282e-20)
(0.00812069 1.8925 -8.66285e-20)
(0.480403 0.146641 -3.99672e-19)
(0.389116 0.0253964 -3.85834e-19)
(0.465498 0.169676 -1.20366e-18)
(0.376201 0.0652805 -7.93563e-19)
(0.218236 0.942842 0)
(0.272518 1.32478 -3.20051e-19)
(0.377011 1.26984 5.40019e-19)
(0.987498 0.00856656 0)
(0.941938 0.00587872 0)
(1.0003 0.000577967 0)
(1.00286 0.00930449 0)
(1.00302 0.00846494 -3.07346e-18)
(0.991915 0.00969379 2.32102e-18)
(0.000909746 0.784903 0)
(-0.00894137 0.634792 0)
(0.0125318 0.844271 0)
(-0.0199656 0.787839 0)
(0.0100434 0.628061 0)
(0.11903 0.19731 2.55136e-19)
(0.175194 0.175078 0)
(0.993535 -0.00838332 0)
(0.954401 -0.0065255 0)
(0.774905 0.0454686 0)
(0.712132 0.0557037 0)
(0.661265 -0.0302133 0)
(0.953397 -0.0106031 0)
(0.628948 0.0701953 0)
(0.456775 -0.0178845 1.68529e-18)
(-0.0368942 2.86309 7.71432e-19)
(0.0420014 2.90897 0)
(0.0544815 2.88509 0)
(-0.00475882 2.69906 0)
(-0.0131639 2.9853 9.44766e-19)
(-0.0179655 2.89527 0)
(-0.0153357 2.98811 -2.91835e-18)
(-0.0133669 2.92521 9.97183e-19)
(-0.0470247 1.17568 0)
(-0.0963297 1.30648 0)
(-0.0548999 2.02279 -2.18935e-21)
(-0.0887662 1.92376 0)
(-0.0682354 1.73844 0)
(0.937766 -0.00769045 0)
(0.856087 -0.00936447 0)
(0.863543 0.0065677 0)
(0.949055 -0.00797576 0)
(0.883534 -0.00818814 0)
(0.515406 1.13043 -2.76322e-19)
(0.564981 1.18235 0)
(0.367182 0.880385 3.92911e-20)
(0.309518 0.739818 0)
(0.9197 1.06822 -1.18656e-19)
(1.0306 0.87014 2.32648e-19)
(0.372231 1.37564 0)
(0.535606 1.34586 0)
(0.544915 1.29997 0)
(0.112386 0.182534 -3.29365e-19)
(0.393763 0.217624 0)
(0.360283 0.108685 2.237e-19)
(1.00076 0.924808 0)
(1.06497 0.772561 0)
(1.09015 0.713513 -1.59603e-19)
(1.11619 0.614138 0)
(1.16059 0.397852 5.46157e-20)
(0.957422 -0.00885459 0)
(0.96232 -0.0101314 0)
(0.901406 -0.00795649 0)
(0.984163 -0.00918079 0)
(0.974617 -0.00941156 0)
(0.937027 -0.00637739 0)
(1.00019 0.00233893 0)
(1.00091 0.00139095 0)
(0.999913 0.000852817 0)
(0.0334424 2.05872 5.0178e-19)
(0.121201 1.7424 0)
(0.0128606 2.17354 8.02961e-19)
(0.0556034 1.86007 -6.91843e-19)
(0.104906 1.18918 -2.04852e-19)
(0.0463582 1.07644 0)
(0.141603 1.04641 0)
(0.0109229 0.909276 0)
(0.01902 0.729043 0)
(-0.0045668 2.21131 -1.96773e-21)
(0.0307984 1.98875 0)
(-0.00616311 2.18636 -1.05917e-19)
(0.0285156 2.0005 2.00583e-19)
(0.0121911 0.868623 0)
(0.0118697 0.833878 0)
(0.0245458 0.692361 0)
(-0.00296884 0.806863 0)
(-0.0181844 0.6397 0)
(0.93457 0.00884017 0)
(0.843758 -0.0146886 0)
(0.924943 -0.000448198 0)
(0.8393 -0.0126139 0)
(0.812594 0.00212183 0)
(0.902439 0.0193066 0)
(0.87958 0.0236344 0)
(0.789473 0.00036128 0)
(0.00578837 3.06488 -9.33423e-21)
(0.0166622 3.05782 0)
(0.0147219 2.96907 0)
(0.00864285 2.87623 0)
(0.925457 3.97036 0)
(1.24016 3.30244 9.20215e-19)
(0.0703034 3.07494 0)
(-0.0280296 2.90581 0)
(0.0343887 1.4852 0)
(-0.0603176 2.10536 0)
(-0.12747 1.84477 0)
(-0.147052 2.51236 5.50958e-20)
(-0.14889 2.44758 0)
(-0.19902 2.49623 0)
(0.0201803 1.97613 1.67604e-21)
(-0.0144748 2.10482 7.91398e-20)
(-0.0270392 2.07502 8.82588e-20)
(0.0161939 1.94427 0)
(0.506297 0.12091 5.99543e-19)
(0.40547 0.00472035 -5.89018e-19)
(0.260918 1.56968 0)
(0.266939 0.718968 -3.32657e-19)
(0.177674 1.65424 -1.12273e-18)
(0.227286 1.18712 1.12564e-18)
(0.902292 0.00656273 0)
(0.967532 0.0109884 0)
(0.974621 0.0107592 0)
(0.923471 0.00651899 0)
(-0.0134429 0.812854 0)
(-0.00319848 0.80134 0)
(-0.00654175 0.637725 0)
(0.277844 0.225712 7.18998e-19)
(0.228849 0.208745 -8.50372e-19)
(0.240533 0.167736 0)
(1.07514 0.0811235 3.50939e-20)
(1.05617 0.0361276 0)
(0.997265 0.0369406 0)
(0.89537 -0.00873844 0)
(0.53119 0.0958295 0)
(0.564667 0.0750995 -2.69677e-18)
(0.425118 -0.0032108 1.01175e-18)
(0.00919118 2.98147 8.12592e-19)
(-0.0322932 2.86645 4.77643e-20)
(0.00364472 3.05021 -1.9681e-20)
(0.0201625 3.04342 6.99148e-19)
(-0.0150206 2.99657 3.2666e-20)
(-0.0129468 2.94946 -1.31337e-22)
(-0.0172542 3.01196 -6.01621e-19)
(0.0148152 3.02394 4.3509e-19)
(0.00733138 3.03674 -6.91371e-19)
(0.932279 -0.00207451 0)
(0.938333 -0.00394601 0)
(0.843841 -0.00871193 0)
(0.956782 0.0116561 0)
(0.943185 0.0128327 0)
(0.881885 0.00619881 0)
(0.918486 0.0159397 0)
(0.926799 0.0145267 0)
(0.838906 0.00432677 0)
(0.719119 1.40989 -9.87725e-21)
(0.752925 1.51935 0)
(0.190627 0.329933 8.07358e-20)
(0.215955 0.654201 6.50853e-19)
(0.258727 0.716879 -3.76042e-19)
(0.266325 0.536846 7.49124e-19)
(0.329389 0.78092 1.72065e-18)
(0.130077 0.21949 3.95812e-19)
(0.44031 0.191527 8.42097e-19)
(0.417547 0.208142 2.18531e-19)
(0.37147 0.0905387 4.18195e-19)
(1.15021 0.456346 -2.28473e-20)
(1.1611 0.250829 -3.15333e-20)
(0.00213901 2.21248 3.25107e-19)
(0.0547369 1.92375 0)
(0.961907 0.0270116 0)
(0.937791 0.0124973 0)
(0.860502 -0.018597 0)
(0.0111223 3.07425 0)
(0.0197037 2.94412 1.29543e-18)
(0.0164571 2.95629 0)
(0.00634635 2.85065 -1.28484e-18)
(0.00631597 3.0914 3.15754e-19)
(0.00726669 3.08268 0)
(0.786101 1.82237 -1.46894e-19)
(1.24786 2.50122 3.666e-19)
(0.768341 1.96239 -1.19907e-18)
(0.0201761 2.98156 -7.13383e-19)
(0.0360811 3.00212 0)
(-0.0336095 2.87861 0)
(-0.00879336 2.16297 -7.34151e-21)
(-0.0117073 2.13561 -1.6546e-19)
(0.0223078 1.99527 -4.08862e-21)
(0.27441 1.37604 1.08394e-18)
(0.221914 0.504167 -7.43115e-19)
(0.0627341 1.98376 8.40957e-19)
(0.137531 1.87352 -9.88642e-19)
(0.178602 1.48097 9.03529e-20)
(0.00328409 3.11804 -1.99047e-18)
(0.017224 3.11797 2.1315e-18)
(-0.00900853 2.98088 8.77731e-19)
(-0.00310184 2.97739 -8.37998e-19)
(-0.0213913 2.88167 -8.93943e-19)
(0.00871393 3.09886 -2.35437e-18)
(0.00201239 3.10682 2.29667e-18)
(0.272219 0.679893 0)
(0.233877 0.668589 -1.34382e-18)
(0.0976229 0.221776 5.94583e-19)
(0.345486 0.905688 1.17728e-18)
(0.184949 0.262729 -1.81658e-18)
(1.1554 0.16997 9.84178e-20)
(1.16281 0.305269 0)
(1.14185 0.118451 -4.78168e-20)
(-0.00287698 2.21952 -2.64314e-21)
(-0.00340837 2.22228 0)
(0.0392725 1.96425 0)
(0.338008 1.28381 -3.90953e-19)
(0.364447 1.11505 -8.42638e-19)
(0.198149 0.357937 1.50383e-18)
(1.00587 -0.0108729 0)
(1.00765 -0.00765608 5.67668e-19)
(0.0290997 1.20867 0)
(0.00113388 1.06863 0)
(1.00222 0.00349592 1.79992e-21)
(1.00364 0.00942144 1.15784e-18)
(-0.120326 2.52193 -7.13894e-20)
(-0.0975629 2.52751 0)
(0.0365474 3.17927 4.90902e-19)
(0.39548 3.49257 0)
(1.13885 0.652435 -9.87429e-20)
(1.01292 0.0130741 -2.13168e-21)
(1.0212 -0.0104402 0)
(1.00168 9.53082e-05 6.23523e-23)
(0.0975684 1.35175 0)
(0.148411 2.58284 0)
(0.0195234 1.30561 0)
(-0.00214576 2.62948 1.04705e-19)
(-0.0251439 2.57902 7.97634e-20)
(1.00311 0.02719 2.44217e-21)
(1.06147 0.00331795 0)
(1.09419 0.021679 0)
(-0.0497914 1.95445 0)
(-0.0305931 2.56791 0)
(0.0329015 1.22642 0)
(0.286978 1.46569 -1.02946e-19)
(1.01125 -0.00965756 0)
(1.0094 -0.0149418 0)
(1.00233 0.000683701 7.24765e-19)
(1.00547 -0.00485318 -8.52613e-19)
(1.00118 -0.00100016 0)
(0.102848 1.66501 0)
(0.070989 1.30719 0)
(0.0195687 1.52083 0)
(0.0267811 1.19861 0)
(0.0373195 1.09997 0)
(0.00271263 1.0515 0)
(1.03423 -0.00655713 0)
(1.0208 0.015715 -9.40024e-22)
(0.796815 1.26297 1.93185e-19)
(1.00229 0.000245927 -7.24597e-19)
(1.00406 0.00523331 8.45386e-19)
(1.00118 0.00205972 0)
(1.01285 0.0102609 7.19812e-19)
(1.00803 0.00826931 -8.70613e-19)
(1.00861 0.0146687 0)
(-0.0570645 2.58421 0)
(-0.0854699 2.5497 7.79818e-20)
(-0.0648892 2.56363 -5.90781e-20)
(1.21651 0.254562 7.59996e-19)
(1.15258 0.0781017 0)
(0.0454087 3.07768 -1.04352e-18)
(0.0659238 2.85373 -7.55705e-20)
(0.142833 3.19387 1.5777e-18)
(0.137797 3.22271 -2.52644e-19)
(0.136154 3.23539 0)
(0.0201748 3.13759 2.73256e-19)
(0.077144 3.16095 1.03095e-18)
(0.0700212 3.18687 -5.14015e-19)
(0.0229046 3.12966 0)
(0.654333 0.303162 0)
(0.576086 0.348205 0)
(1.10871 0.684931 2.59034e-19)
(1.10453 0.814049 -2.82826e-19)
(1.16737 0.572059 0)
(1.19688 0.512223 0)
(1.01618 0.0132853 -1.34288e-18)
(1.015 0.0142599 1.68568e-18)
(1.02514 -0.0100424 0)
(1.02317 -0.0119898 0)
(1.00648 0.00258738 0)
(1.0104 0.00365665 0)
(1.00461 0.00183356 0)
(1.00988 0.00613695 0)
(1.00781 0.006007 0)
(1.0045 0.00458271 0)
(0.0873281 1.34834 0)
(0.0791185 1.3228 0)
(0.118545 1.38458 0)
(0.127273 1.39883 0)
(0.146105 2.60693 0)
(0.186965 2.67206 -4.83307e-19)
(0.0994047 2.66442 0)
(0.0883033 2.66681 2.57985e-19)
(0.0389664 2.68617 -2.56351e-19)
(0.0347664 1.31138 0)
(0.000862427 1.23631 0)
(0.0293598 1.32381 0)
(0.0413758 1.27013 0)
(-0.00647077 1.98973 -6.46447e-20)
(-0.0278486 2.6074 6.96523e-20)
(-0.0154456 2.67124 1.09161e-19)
(-0.0225315 2.68042 0)
(-0.0313426 2.61112 -1.87015e-19)
(-0.0299971 2.60306 -1.15075e-19)
(0.00316418 1.9902 4.94842e-20)
(-0.020389 2.41345 -9.34091e-20)
(-0.0220638 2.43028 -1.23797e-19)
(1.01183 0.0353019 1.36254e-18)
(1.00815 0.0167784 -1.68881e-18)
(1.00448 0.0415395 -1.36889e-18)
(0.982864 0.021824 1.73902e-18)
(1.06255 0.006988 0)
(1.04793 -0.00911462 0)
(1.09093 0.0323079 0)
(1.07214 0.0110302 0)
(1.06972 -0.00130424 0)
(1.13494 0.0739789 0)
(1.10693 0.0396615 0)
(1.10924 0.0273583 0)
(-0.139187 2.48317 -7.79359e-21)
(-0.0250166 2.23203 0)
(-0.115776 2.39448 0)
(-0.043873 2.58518 4.20458e-20)
(-0.0341196 2.59597 -2.01953e-21)
(0.0601917 1.7378 2.76978e-20)
(0.0554429 1.62164 -2.88797e-20)
(0.059311 1.41045 0)
(0.0605013 1.41265 0)
(0.0764137 1.40895 0)
(0.0395732 1.25135 0)
(0.0249028 1.1163 0)
(0.377423 1.48055 1.47541e-19)
(0.415615 1.48661 1.03138e-19)
(0.596518 2.45157 -2.53211e-19)
(0.403655 2.54639 7.5228e-19)
(0.355257 2.07106 9.39016e-20)
(1.02092 -0.00826074 0)
(1.01543 -0.00982783 0)
(1.01487 -0.0155584 0)
(1.00747 -0.00122188 0)
(1.0049 -0.000973288 0)
(1.00776 -0.00477386 0)
(1.00923 -0.00376285 0)
(1.01414 -0.0045505 0)
(1.02148 0.0159387 1.31572e-18)
(1.01815 0.0157782 -1.68741e-18)
(1.02197 0.017898 -1.325e-18)
(1.01978 0.0165622 1.66201e-18)
(0.764411 1.31097 0)
(0.699184 1.36481 1.61231e-19)
(0.87259 1.20864 2.69547e-20)
(0.914977 1.16317 -3.58561e-20)
(1.15602 2.60803 4.27245e-19)
(0.81103 0.0984509 6.63187e-19)
(1.1539 0.0964294 0)
(1.19664 0.180941 -6.1021e-19)
(1.18069 0.145313 -2.57765e-20)
(1.00533 0.140297 0)
(0.138178 2.96197 6.25948e-19)
(0.115145 2.86784 -1.31552e-18)
(0.0262967 2.37046 8.88288e-19)
(0.0926215 -0.00125932 -4.00601e-19)
(0.34024 3.42155 -1.67502e-19)
(0.194857 3.31414 0)
(0.237393 3.35643 2.18144e-19)
(0.246543 3.03526 -2.01557e-18)
(0.341093 3.1943 0)
(0.00585927 3.12106 5.22366e-20)
(0.0163581 3.12975 -6.11338e-19)
(0.0143298 3.12576 8.9977e-19)
(0.0355926 3.1401 0)
(0.0341413 3.15072 0)
(1.2149 2.60792 0)
(0.530967 0.841067 -5.83068e-19)
(1.03444 0.989226 5.28423e-20)
(0.971594 1.06343 0)
(0.818487 0.963176 -1.47644e-19)
(1.05747 0.877468 2.94594e-20)
(0.369455 0.40766 -1.0296e-18)
(0.700236 0.325843 -2.2784e-20)
(0.672861 0.244512 4.73724e-19)
(0.591681 0.38336 3.49329e-20)
(0.509152 0.359914 -1.40618e-18)
(0.669592 0.342237 0)
(0.702766 0.427297 8.04342e-19)
(0.709782 0.425192 0)
(0.628009 0.369546 0)
(0.604221 0.296415 0)
(0.791507 0.616442 4.87321e-19)
(1.21331 0.277317 -6.4338e-19)
(1.20744 0.416679 0)
(1.21914 0.360513 0)
(0.753774 0.191337 7.06484e-19)
(0.837652 0.536078 -4.41079e-19)
(0.741584 0.511635 7.82776e-19)
(0.940371 0.422236 -8.73074e-19)
(1.01984 0.0145734 9.05049e-19)
(1.0179 0.0141631 -9.09657e-19)
(1.01596 0.0155699 0)
(1.03573 -0.00619634 0)
(1.02949 -0.0086768 -8.55194e-19)
(1.02745 -0.012228 8.46887e-19)
(1.02513 0.00953957 0)
(1.02374 0.0131459 0)
(1.01141 0.00401633 0)
(1.01431 0.00893582 0)
(1.01508 0.00392173 0)
(1.01419 0.00273327 0)
(0.0593403 1.3323 0)
(0.0620619 1.29394 0)
(0.14731 1.35315 -6.82119e-20)
(0.265086 1.4631 4.83075e-20)
(0.155789 1.4337 9.65212e-20)
(0.186129 1.44237 -1.60292e-19)
(0.159859 1.37835 0)
(0.131181 1.58852 -1.47655e-19)
(0.116092 1.55855 0)
(0.354544 2.02494 -1.36491e-19)
(0.348866 2.35788 7.03219e-19)
(0.184227 1.44163 1.28738e-19)
(0.260673 1.37472 -1.00097e-20)
(0.197828 1.35921 8.11715e-21)
(0.27229 1.31547 -1.78614e-19)
(0.242004 1.5736 0)
(0.261294 1.6154 1.70895e-19)
(0.0293798 2.27647 -6.25037e-20)
(0.0391929 2.67749 0)
(0.0630532 2.41372 2.10102e-19)
(0.0561327 2.43559 0)
(0.0694772 2.6797 -2.85376e-19)
(0.050203 2.70618 0)
(0.021372 1.4086 -5.42454e-20)
(0.0302121 1.45988 0)
(0.0323781 1.37659 0)
(0.0208689 1.38171 6.12069e-20)
(-0.00452415 2.65879 -2.01728e-20)
(0.0267975 2.70417 2.99325e-19)
(0.00811298 2.72702 2.10716e-21)
(-0.00744665 1.83865 6.50765e-20)
(-0.0178657 1.67678 2.91941e-20)
(0.0124247 1.29548 0)
(0.0165112 1.19403 0)
(0.0446099 1.5654 8.13632e-20)
(0.0280408 1.44187 7.56863e-20)
(0.0333822 1.50755 -9.51787e-20)
(0.0367719 1.58947 0)
(-0.0378189 2.29751 -8.14629e-20)
(-0.0608543 2.54309 3.25072e-20)
(-0.0227507 2.45269 -2.24317e-20)
(-0.0212643 1.85237 -7.88597e-20)
(-0.0373304 2.49629 -2.96963e-20)
(-0.0289617 2.44321 1.31824e-19)
(1.02004 0.0205675 -9.00484e-19)
(1.01635 0.0257703 9.03009e-19)
(1.01525 0.016214 0)
(1.01281 0.0651412 1.26697e-18)
(0.993102 0.0555505 -1.41521e-18)
(0.955104 0.043042 1.58061e-18)
(1.01616 0.101693 -1.69425e-19)
(1.04189 -0.00627013 0)
(1.04998 -0.00212152 8.19665e-19)
(1.0382 -0.0102059 -8.20275e-19)
(1.06992 0.0400917 -4.9028e-20)
(1.06341 0.0218819 4.22058e-19)
(1.06392 0.0518881 0)
(1.05219 0.0466138 -1.51221e-19)
(1.03309 0.0393361 0)
(1.02628 0.0356082 0)
(1.02775 0.0126596 0)
(1.02445 0.0154927 0)
(1.03924 0.0300882 3.11038e-19)
(1.03941 0.0253814 -6.85095e-19)
(1.05025 0.0322155 -3.30655e-19)
(1.04699 0.0325918 -3.63544e-19)
(1.06759 0.0596581 7.14854e-19)
(1.09309 0.0470044 0)
(1.10067 0.0892438 0)
(-0.061889 2.29437 -3.54657e-20)
(-0.0233578 2.17886 -5.20295e-21)
(-0.00386927 2.12925 0)
(-0.061488 2.46854 3.79087e-20)
(-0.0802774 2.46129 1.2376e-20)
(-0.0993713 2.47706 -1.90982e-20)
(-0.0317674 2.61472 9.99602e-20)
(-0.0473549 2.5527 -8.08862e-21)
(-0.0325692 2.5128 3.1241e-20)
(-0.0303505 2.6042 -5.27643e-20)
(-0.0325753 2.6077 6.51397e-20)
(0.0885225 1.58644 2.87285e-21)
(0.0407754 1.74721 6.08816e-20)
(0.366963 1.4202 -4.84667e-20)
(0.365032 1.36369 1.12685e-19)
(0.646249 1.41067 -1.55948e-19)
(0.513608 1.47498 -9.98425e-20)
(0.565648 1.44824 0)
(0.591968 2.42712 2.26806e-19)
(0.658744 2.41867 3.57745e-19)
(0.410823 2.52204 8.2687e-20)
(0.405473 2.55024 -7.11043e-19)
(0.514247 2.4956 6.74088e-19)
(0.551483 2.46527 0)
(0.488835 2.5208 -6.01302e-19)
(0.248852 2.59712 1.28457e-18)
(0.353617 2.57117 -8.39821e-20)
(0.284862 2.65886 -1.74276e-18)
(0.941767 2.37881 8.05852e-19)
(0.834075 2.38365 0)
(1.01091 0.000380589 2.94578e-20)
(1.01521 -0.00557187 -2.39329e-20)
(1.01766 -0.00366869 -4.37419e-19)
(1.01493 -0.00103185 4.39514e-19)
(1.01229 0.000997996 0)
(0.634633 1.28053 0)
(0.652719 1.17518 0)
(0.754375 1.08238 0)
(0.644071 1.14197 0)
(1.18536 2.62251 5.94739e-20)
(1.07407 2.36647 0)
(0.83752 2.18715 4.74513e-21)
(0.826453 2.44957 0)
(0.92207 2.53942 -5.01831e-19)
(0.957613 2.49524 3.34125e-19)
(0.819797 0.14905 0)
(0.789892 0.127948 1.81415e-19)
(0.925171 0.132838 1.05492e-18)
(0.841273 0.127452 -3.95699e-19)
(0.820789 0.069824 -1.21015e-18)
(1.07401 0.221599 -1.05775e-18)
(0.994656 0.279356 -1.53577e-20)
(0.91895 0.275009 9.86602e-19)
(1.00542 0.207937 8.28978e-19)
(0.952254 0.174082 -1.40871e-18)
(0.918501 0.175305 1.75903e-19)
(0.950101 0.236165 -3.79906e-19)
(0.929092 0.198134 0)
(0.996275 0.173111 6.96102e-19)
(1.04632 0.173387 0)
(1.04504 0.199941 0)
(1.10103 0.106887 3.36524e-19)
(1.07236 0.161947 -1.36786e-20)
(1.06787 0.224107 -1.8314e-19)
(1.09748 0.190338 0)
(1.02302 0.0438183 6.99644e-19)
(1.04117 0.055578 8.74068e-19)
(1.03319 0.0415302 -6.93671e-19)
(1.04149 0.0609384 -5.85726e-19)
(1.0168 0.0682135 -8.91553e-19)
(0.990443 0.147132 0)
(0.999692 0.0982693 0)
(0.970845 0.0635398 -5.62506e-19)
(0.92304 0.0844638 2.20838e-19)
(1.03789 0.0967704 8.10599e-19)
(1.06823 0.109579 -9.68396e-19)
(1.07253 0.142108 8.63586e-19)
(1.03157 0.134193 0)
(1.07352 0.0998201 0)
(1.05684 0.0828555 -3.93028e-19)
(1.04484 0.0898256 -6.64582e-19)
(0.578757 1.07801 1.77629e-19)
(0.611404 1.41373 -8.03822e-20)
(1.15591 2.74142 -2.79467e-19)
(1.2227 3.08241 1.22821e-20)
(1.2482 2.72232 -2.45449e-19)
(1.27835 2.70637 2.00592e-20)
(1.2063 2.34557 -1.00859e-20)
(1.20982 2.98608 -1.37365e-19)
(1.22919 2.95102 3.04075e-19)
(1.21383 3.23606 -1.25399e-19)
(1.37505 2.9675 1.73444e-19)
(1.36577 2.88561 0)
(0.537182 0.848714 -5.55259e-20)
(0.138777 1.25977 6.10911e-19)
(0.530228 0.46492 6.64598e-19)
(0.365404 0.215882 7.35276e-19)
(0.530165 0.392095 7.93599e-19)
(0.542189 0.481849 -1.30242e-18)
(0.545148 0.487648 1.06377e-18)
(0.497793 0.412617 -4.00604e-19)
(0.424108 0.34908 9.09259e-19)
(0.75714 0.249379 -4.04738e-19)
(0.719661 0.285426 0)
(0.711111 0.21419 9.84653e-21)
(0.725794 0.514472 4.23902e-19)
(0.696855 0.482028 -1.54421e-18)
(0.614274 0.478867 1.64447e-20)
(0.625021 0.45995 0)
(0.66697 0.735073 4.47561e-19)
(0.81732 0.771416 4.73747e-19)
(0.743782 0.853983 -5.52389e-19)
(0.85898 0.803471 -1.92233e-19)
(0.89252 0.847383 -5.15925e-20)
(0.900876 0.848967 5.28217e-20)
(0.831461 0.64269 -8.08639e-19)
(0.909081 0.69891 1.78541e-19)
(0.96618 0.713419 0)
(0.956893 0.689535 -2.48342e-19)
(1.0197 0.319463 2.55679e-19)
(1.13003 0.289844 3.69398e-19)
(1.05979 0.259064 4.3244e-19)
(1.00379 0.354515 -5.10331e-19)
(1.04249 0.421146 0)
(1.09461 0.406459 0)
(0.906683 0.349688 5.23454e-21)
(0.840695 0.283067 0)
(0.868205 0.275761 4.61742e-19)
(0.902574 0.281204 -5.74347e-21)
(0.932153 0.425329 2.43663e-18)
(0.887915 0.486308 6.29763e-19)
(0.893436 0.450448 -6.61608e-19)
(0.81739 0.434056 7.08696e-19)
(0.799952 0.430466 4.21927e-19)
(0.770401 0.418233 -4.14767e-19)
(1.02719 -0.000481626 7.29568e-19)
(1.01999 -0.000260939 0)
(1.0185 0.00068272 4.75278e-19)
(1.02166 -0.00197492 -1.07692e-18)
(1.02227 0.00403347 5.23067e-19)
(1.02043 0.0109583 -1.09548e-18)
(1.02138 0.0103586 0)
(1.02075 0.0106279 -2.28064e-19)
(1.016 0.00754535 5.7211e-19)
(1.01678 0.0102819 -2.85392e-19)
(1.01748 0.00961855 2.1027e-19)
(0.0310069 1.30922 0)
(0.0395266 1.34519 0)
(0.0432765 1.31091 0)
(0.0508613 1.27546 0)
(0.0686856 1.36754 1.10374e-19)
(0.0767304 1.34025 -2.5621e-20)
(0.11188 1.49761 -5.53355e-20)
(0.0911802 1.3401 3.6046e-20)
(0.0322197 1.44379 -1.03249e-19)
(0.0361446 1.43459 7.99841e-20)
(0.0619557 1.3501 -5.66636e-21)
(0.05554 1.35134 -6.06047e-20)
(0.0515173 1.33192 -9.17071e-21)
(0.0407715 1.35224 -1.19794e-20)
(0.106722 2.38574 -2.32297e-19)
(0.0956691 2.43 0)
(0.173047 2.06001 1.41264e-19)
(0.108507 1.70867 7.53693e-20)
(0.232394 2.05171 -1.13845e-19)
(0.208536 2.44766 0)
(0.267711 2.39886 -6.91855e-19)
(0.30698 2.39673 4.90543e-19)
(0.234079 2.00991 -3.18736e-19)
(0.154437 2.17547 2.01907e-19)
(0.14576 2.29411 0)
(0.0118585 1.88124 -1.14921e-19)
(-0.00983597 2.41104 -1.85498e-19)
(-0.00163927 2.16402 0)
(0.00980049 2.46948 -1.42365e-20)
(0.0196052 2.3172 6.84666e-20)
(0.014674 1.393 9.62775e-21)
(0.0123277 1.38189 -1.46561e-19)
(0.0146624 1.39027 3.55856e-20)
(0.0124043 1.38916 5.32335e-20)
(0.0204598 1.41254 0)
(0.017731 1.37141 0)
(0.0558694 1.26071 6.13321e-20)
(0.0541309 1.3729 -2.17436e-20)
(0.0194218 1.36482 0)
(0.0353989 1.27448 3.86425e-20)
(0.00894595 1.14899 -8.08996e-20)
(1.03991 0.010901 0)
(1.04611 0.00715699 -7.6888e-20)
(1.03855 0.0201297 -5.52484e-19)
(1.04767 0.0190409 0)
(1.05121 0.0192783 0)
(1.03653 0.0108388 -6.60772e-21)
(1.03105 0.0106183 8.86694e-19)
(1.03202 0.0157009 1.07513e-18)
(1.02599 0.0196499 0)
(1.0233 0.0200981 0)
(1.03519 0.0236863 5.5161e-19)
(1.02637 0.0250807 0)
(1.02473 0.0251054 0)
(-0.0470281 2.01864 0)
(0.0241049 1.73317 3.20066e-21)
(-0.0120514 1.81088 3.94679e-21)
(0.0634125 1.37867 0)
(0.020762 1.59829 4.30339e-20)
(0.0543628 1.5065 -2.33723e-20)
(0.0870715 1.43982 0)
(0.395873 1.6774 0)
(0.366813 1.29288 -2.01868e-19)
(0.307374 1.34105 0)
(0.423635 1.29331 1.72713e-19)
(0.466559 1.44878 0)
(0.447659 1.39363 -4.97654e-20)
(1.03441 2.68668 -1.73213e-20)
(0.963687 2.409 -1.01275e-18)
(0.91305 2.18722 1.17144e-18)
(0.847368 2.3754 2.62978e-19)
(0.846235 2.49832 0)
(0.91644 2.49375 0)
(0.925149 2.37224 0)
(0.90289 2.35921 -1.02299e-18)
(0.691587 2.4681 -4.61664e-19)
(0.801842 2.45876 -1.12008e-19)
(0.812658 2.43151 8.54864e-20)
(0.693696 2.39302 0)
(0.797411 2.38815 0)
(0.756355 2.40105 -3.90275e-19)
(0.769353 2.48933 0)
(0.611595 1.09822 0)
(0.481528 0.928555 -5.79216e-19)
(0.549054 0.964194 -3.67322e-20)
(0.519156 1.0559 0)
(0.519023 1.00546 8.6973e-19)
(0.767618 0.880466 -1.60609e-19)
(0.778554 1.01312 0)
(0.751953 0.97149 2.41955e-19)
(0.63996 1.03497 0)
(0.644242 0.944344 0)
(1.16405 2.76222 -2.8167e-19)
(1.14154 2.82602 -1.34612e-19)
(0.931071 2.34661 1.64292e-19)
(0.898973 2.32519 -1.0365e-19)
(1.12893 2.73469 0)
(1.08249 2.70469 1.24753e-19)
(1.08876 2.48634 -3.59901e-19)
(0.983534 2.2334 -3.03723e-20)
(0.498359 1.35827 0)
(0.510822 1.07637 -1.56694e-19)
(0.562311 1.16289 0)
(0.860953 0.213072 0)
(0.797377 0.166769 0)
(0.748555 0.140461 0)
(0.855545 0.219194 -7.26798e-19)
(0.77392 0.211195 4.2476e-19)
(0.936686 0.0713349 -4.56169e-19)
(0.950261 0.116123 0)
(0.928795 0.124764 1.95931e-19)
(0.870281 0.100623 7.84889e-19)
(0.847507 0.0601717 -4.91205e-19)
(1.16146 3.36159 -6.84553e-19)
(1.20891 3.2809 0)
(1.16007 3.38958 -1.42283e-18)
(0.647644 3.55048 1.20662e-18)
(0.872489 3.11799 2.95264e-20)
(0.511229 0.85436 6.58046e-19)
(0.429047 0.847151 0)
(0.339629 0.499403 -1.651e-19)
(0.446192 0.684482 9.45623e-19)
(0.533275 0.471333 -2.29533e-19)
(0.507785 0.523133 2.59568e-19)
(0.658198 0.535216 5.6992e-19)
(0.686168 0.552979 0)
(0.637671 0.618558 0)
(0.596148 0.555687 0)
(0.969173 0.59825 1.33345e-19)
(0.889477 0.535485 -6.12865e-19)
(0.913207 0.568607 4.78005e-19)
(0.949236 0.503876 -4.76518e-19)
(1.05221 0.48013 0)
(1.06077 0.568656 -1.25158e-19)
(0.84088 0.385846 -9.64434e-19)
(0.844822 0.371111 -1.1965e-18)
(0.792674 0.38345 7.5187e-19)
(0.789872 0.351714 -7.65672e-19)
(0.840022 0.307127 -5.99793e-19)
(0.793844 0.306387 7.36977e-19)
(1.02673 0.00540734 -5.5985e-19)
(1.02648 0.00562603 1.14193e-18)
(1.02905 -0.000550522 7.08219e-19)
(1.03333 0.000512496 -8.52555e-19)
(1.03297 0.00805248 0)
(1.03003 0.00865744 -1.38793e-18)
(0.0603306 1.64346 4.1597e-20)
(0.0414298 1.56742 0)
(0.0863607 1.69545 2.70833e-19)
(0.0936831 1.67498 -2.43312e-19)
(0.0896273 1.51498 1.03854e-19)
(0.0826775 1.49512 0)
(0.000157121 1.6958 0)
(-0.0101901 1.50673 -2.38048e-20)
(0.00929189 1.44708 2.14404e-20)
(0.0160602 1.58823 5.99844e-21)
(-0.00677944 1.89114 -4.45306e-20)
(-0.0355614 1.93862 2.4062e-20)
(0.497601 1.37416 -3.93288e-19)
(0.493131 1.37873 4.2986e-19)
(0.44652 1.28979 -1.18018e-19)
(0.438282 1.29438 1.40601e-20)
(0.626206 1.2938 0)
(0.543636 1.38085 1.59155e-20)
(0.560996 1.38927 -1.54964e-20)
(0.455785 1.27672 1.13687e-19)
(0.5115 1.23127 0)
(0.564502 1.19832 0)
(0.658754 2.42785 6.78192e-19)
(0.670838 2.46469 1.39746e-18)
(0.716884 2.47713 -9.62026e-19)
(0.616332 2.45455 -2.21181e-19)
(0.563615 2.54563 3.17279e-19)
(0.512396 2.51896 -8.38273e-19)
(0.975372 2.37748 -6.56569e-19)
(1.01187 2.39211 0)
(0.921167 2.16592 -7.54773e-19)
(1.05253 2.68385 0)
(1.05466 2.67046 0)
(0.612652 2.27833 -1.59426e-19)
(1.04176 3.16465 9.04135e-20)
(0.913007 3.03499 8.05295e-21)
(0.282517 0.918944 0)
(0.323783 0.78097 -3.44084e-19)
(0.480539 0.734892 -3.55169e-19)
(0.39201 2.02599 0)
(0.468009 2.78707 -2.05543e-20)
(0.424627 2.55115 0)
(0.680084 0.68204 -9.50803e-19)
(0.762525 0.681454 1.30633e-18)
(0.782394 0.623544 -1.29485e-18)
(0.66218 0.644237 -1.22527e-19)
(0.719025 0.59808 -5.09758e-19)
(1.00358 2.76836 -6.87464e-20)
(1.04043 2.82477 -2.31668e-19)
(0.641054 2.15533 7.38511e-19)
(0.596169 1.72032 -5.22444e-19)
(0.699228 1.91034 -4.83711e-19)
(0.989019 2.45124 -1.21805e-19)
(0.993909 2.44535 3.6837e-19)
(0.66083 1.85117 3.29835e-20)
(0.450569 1.33758 1.79694e-19)
)
;

boundaryField
{
    wall-4
    {
        type            noSlip;
    }
    velocity-inlet-5
    {
        type            fixedValue;
        value           uniform (1 0 0);
    }
    velocity-inlet-6
    {
        type            fixedValue;
        value           uniform (0 3 0);
    }
    pressure-outlet-7
    {
        type            zeroGradient;
    }
    wall-8
    {
        type            noSlip;
    }
    frontAndBackPlanes
    {
        type            empty;
    }
}


// ************************************************************************* //
