/*--------------------------------*- C++ -*----------------------------------*\
| =========                 |                                                 |
| \\      /  F ield         | OpenFOAM: The Open Source CFD Toolbox           |
|  \\    /   O peration     | Version:  4.0                                   |
|   \\  /    A nd           | Web:      www.OpenFOAM.org                      |
|    \\/     M anipulation  |                                                 |
\*---------------------------------------------------------------------------*/
FoamFile
{
    version     2.0;
    format      ascii;
    class       volScalarField;
    location    "15";
    object      p;
}
// * * * * * * * * * * * * * * * * * * * * * * * * * * * * * * * * * * * * * //

dimensions      [0 2 -2 0 0 0 0];

internalField   nonuniform List<scalar> 
918
(
0.205877
0.884139
0.00785529
0.205212
-0.000279664
0.851271
-0.859796
0.389942
0.185823
-0.228344
0.0180611
0.177549
0.711821
0.478721
-1.49069
0.012547
0.344267
-0.7308
0.184495
0.00605431
0.459249
0.192656
0.195638
0.18623
0.243603
0.471595
0.592174
0.00266102
-0.00321574
-0.00205904
0.00299517
-0.00336753
0.00218247
0.734893
0.785996
0.808641
0.155941
-0.0204952
-0.708971
-0.788703
-0.770018
-0.922689
0.379184
0.383028
-0.512715
0.391299
0.406573
0.17336
0.185167
0.18618
0.18739
0.186179
0.187659
0.250084
-0.284397
-0.349483
-0.148484
-0.108506
0.0680502
0.0203022
0.0126993
0.0238384
0.0217855
0.114986
0.17441
0.171919
0.183061
0.19152
0.823684
0.795565
0.821691
0.735505
0.751958
0.689761
0.662187
0.499033
0.520125
0.463802
0.453952
-1.93324
-2.90422
-0.890036
-0.631416
0.00208984
0.019545
0.024289
0.326974
0.334133
0.336067
0.348826
0.738408
-0.723457
-0.851881
0.184447
0.183409
0.192399
0.193068
0.189103
0.188233
0.012997
0.0190428
-0.00362039
0.00425432
0.00331571
0.439407
0.436596
0.186743
0.183565
0.199551
0.22245
0.212032
-0.0420049
0.258043
0.282805
0.27254
0.452203
0.450323
0.457701
0.565721
0.52812
0.629586
0.652998
0.00773474
0.00194816
0.00963323
0.00726557
0.0104469
0.151206
0.145702
0.167209
0.158014
0.159856
-0.098615
-0.231363
0.0560858
0.0735228
-0.612765
-0.686035
-0.78953
-0.801636
-0.906802
0.174401
0.364626
0.368649
-0.526333
-0.442229
-0.593533
-0.367144
-0.440422
0.163606
0.171173
0.165954
0.180674
0.17521
0.177038
0.189566
0.186625
0.188144
0.265837
0.350397
0.189419
0.186394
-0.598165
-0.427046
-0.556132
-0.0629573
-0.0434715
0.0770168
0.0872914
0.0593134
0.0559942
-0.0166594
0.00692061
-0.00731544
0.0228512
0.0230912
0.108946
0.100277
0.12358
0.130159
0.165871
0.166727
0.168766
0.168872
0.612881
0.635303
0.642805
0.616589
-3.91268
-6.73414
-0.297857
-0.154093
0.00177621
0.0029771
0.00105935
0.00236267
0.00388398
0.00156149
0.0335208
0.0325473
0.0276727
0.0316257
0.312229
0.31857
0.713055
0.717654
0.662959
0.663686
0.172772
0.174963
0.180132
0.175832
0.0230574
0.0203973
0.0238934
0.405353
0.423032
0.424146
-0.0755199
-0.164201
0.00581883
0.0328182
0.300289
0.285064
0.303452
0.336684
0.373681
0.660384
0.678717
0.677032
0.685439
0.729482
0.745887
0.7112
0.134619
0.143121
0.138557
0.17238
0.168569
0.169869
0.165608
0.16744
0.165002
-0.384157
-0.771099
0.125899
0.128534
0.105691
0.109929
0.263182
0.337224
0.344707
0.35319
0.358067
-0.301212
-0.369253
0.159071
0.146836
0.0573255
0.0884121
0.0718847
0.584055
0.544708
0.594545
0.568125
0.529668
0.55552
-0.723075
-2.25335
-1.35539
0.212326
0.0161615
0.108238
0.0513066
0.0357688
0.0443559
0.650515
0.713421
0.409262
0.559157
0.536808
0.416159
0.448699
0.500776
0.424098
0.459952
0.497616
0.480688
0.135115
0.13103
0.111229
0.40567
0.470252
-0.189867
-0.237192
-0.296762
0.0944538
0.124355
0.118182
0.680293
0.543174
0.638177
0.18368
0.18427
0.0117719
0.0217408
0.188329
0.188542
0.00632655
0.00817725
0.0874388
-1.20415
-0.195891
0.176737
0.167062
0.183748
-0.288242
0.31022
0.0140846
0.0798654
0.0556435
0.176114
0.125524
0.0912686
0.00669638
0.0179058
0.0132037
-0.520861
0.181324
0.179518
0.183365
0.184451
0.185261
0.00834269
0.0103648
0.006951
0.01107
0.0111246
0.00890036
0.150784
0.163878
-0.51071
0.183431
0.185625
0.185469
0.178951
0.184182
0.182169
0.0157415
0.0102718
0.00954491
-0.0902528
0.0255951
0.346449
0.461378
0.291592
0.0673769
-0.175561
0.24297
0.312441
0.20808
0.378326
0.346636
0.376063
-0.138045
-0.285164
-0.128541
-0.183343
0.174279
0.173272
0.165672
0.163611
0.179208
0.17749
0.181524
0.178808
0.181269
0.182489
-0.190516
-0.137152
-0.348908
-0.413443
0.273563
0.412406
0.204466
0.207123
0.127792
0.0186975
0.0214233
0.0145869
0.0122187
0.0436211
0.0574213
0.0754789
0.0591793
0.0492743
0.0396924
0.0428114
0.0506098
0.0533545
0.170527
0.168581
0.174906
0.181817
0.133234
0.13586
0.107652
0.123539
0.113598
0.0582289
0.0886288
0.068147
0.00787696
0.0076329
0.00556326
0.0216073
0.0262921
0.0132824
0.0106653
0.0133368
0.0107351
0.00992366
0.0165566
0.0192319
-0.518306
-0.598827
0.653857
0.581134
-0.548206
0.170076
0.176465
0.173123
0.178469
0.181511
0.182073
0.179805
0.176855
0.164814
0.167107
0.162754
0.162999
-0.44972
-0.586727
-0.409868
-0.476373
-0.207487
0.289532
0.0368977
-0.0223519
-0.0261964
0.182876
0.543596
0.357964
0.413869
0.439014
-0.701664
-0.302347
-0.632397
-0.0216761
-0.191827
0.346827
0.400948
0.425599
0.370186
0.317407
-0.46234
0.176784
-0.385372
-0.351341
-0.161574
-0.256157
0.391662
0.3308
0.338321
0.362994
0.385983
0.338405
0.319537
0.318833
0.354503
0.359171
0.151035
-0.0549659
-0.102954
-0.137468
0.314553
0.193917
0.248811
0.16705
0.169061
0.172083
0.171066
0.15553
0.160966
0.155984
0.162698
0.164938
0.175014
0.174399
0.170318
0.172904
-0.0868129
-0.0584831
-0.317778
-0.516467
-0.439183
-0.514134
-0.43417
-0.376707
-0.232322
-0.386036
-0.0273055
-0.564271
-0.600822
-0.528202
-0.644535
-0.482314
-0.515511
0.0780937
0.142306
0.117582
0.145533
0.178671
0.178987
0.0326525
0.0347384
0.0136091
0.0217659
0.07483
0.0879957
0.0990677
0.0370892
0.037891
0.0230978
0.0223452
0.0273791
0.0133221
0.0213576
0.0363309
0.0204728
0.0224566
0.0263643
0.0296907
0.0349077
0.0377979
0.163315
0.165837
0.164662
0.177819
0.188567
0.202714
0.172811
0.149773
0.142553
0.144809
0.123806
0.130513
0.128526
0.138
0.156234
0.162618
0.160727
0.163209
0.150449
0.151238
0.138363
0.142219
0.124219
0.1066
0.0960185
0.0169993
0.0108796
0.0138492
0.0148745
0.0104517
0.0121308
0.0375436
0.0300265
0.0342607
0.0298686
0.0331755
0.0169562
0.0168077
-0.509702
-0.516759
-0.541837
-0.560314
-0.633559
0.530727
0.633672
0.466765
0.24051
0.192186
0.47215
0.629228
0.338819
0.38078
0.476578
0.137423
0.407264
0.175308
0.17513
0.172679
0.172225
0.172989
-0.357914
-0.260942
-0.250895
-0.200292
-0.0852283
0.0232688
-0.0414465
-0.140576
-0.00426944
0.0257544
0.284743
0.300647
0.2447
0.269835
0.268315
0.0973922
0.172792
0.220939
0.181726
0.222572
0.242786
0.207192
0.235259
0.185451
0.145992
0.145691
0.0945162
0.109787
0.0894389
0.0748636
0.166246
0.146109
0.155582
0.14757
0.167171
0.19555
0.189064
0.212518
0.228012
0.155643
0.116582
0.126052
0.15413
0.115122
0.127239
0.141004
-0.173195
-0.272042
-0.192044
-0.45919
-0.358791
-0.375416
-0.418135
-0.400948
-0.121739
-0.804816
-0.766144
-1.40172
0.112911
0.57796
0.344134
0.309704
0.381589
0.356001
0.355734
0.390516
0.399416
0.30625
0.322929
0.325779
0.281016
0.306272
0.332995
0.331978
0.154272
0.0440247
0.0318659
0.000206004
-0.124642
-0.0943214
0.116665
0.0395312
-0.0356039
-0.0292881
0.133187
0.0301977
0.0884211
0.125826
0.0597187
0.0176543
0.20533
0.275766
0.266435
0.237796
0.159764
0.173489
0.196189
0.227876
0.255707
0.294691
0.164071
0.166857
0.168918
0.167612
0.163047
0.166216
0.16638
0.168437
0.169056
0.171935
0.171157
0.00695316
0.00413225
-0.0305592
-0.00896773
-0.130024
-0.165325
-0.208185
-0.20317
0.00874439
-0.0122623
-0.0858432
-0.0454658
-0.025008
-0.00995036
0.0311836
0.0445501
-0.0668875
-0.10153
-0.223464
0.0485226
0.0930348
-0.0528458
-0.218681
-0.108645
-0.0295252
0.0442334
0.0653345
0.0587269
0.0611219
0.0590477
0.029669
0.0258588
0.0255872
0.0311868
0.0307648
0.0232937
0.0210418
0.022961
0.0234239
0.0227544
0.0219823
0.150027
0.144773
0.147344
0.142151
0.141047
0.152711
0.156048
0.15763
0.162259
0.163924
0.155596
0.159677
0.163043
0.0259059
0.0207501
0.0228563
0.0222838
0.0215483
0.0191187
0.019253
-0.104088
-0.459179
-0.454877
-0.420806
-0.497547
-0.459379
0.14039
0.0791013
0.113211
0.276204
0.171488
0.0553703
0.116724
0.238934
-0.0110925
0.137606
-0.0037246
0.485472
0.358779
0.503154
0.187503
-0.134507
0.00973057
0.0579175
-0.134296
-0.0579985
-0.0286576
-0.142895
-0.109807
-0.0817794
0.0133729
-0.110448
-0.148524
-0.379762
-0.195765
-0.0694812
-0.0869352
0.0337737
0.0853526
-0.0958254
-0.200644
-0.234992
0.271876
0.293226
0.309755
0.281752
0.302718
0.231483
0.221227
0.239007
0.249401
0.24421
-1.13611
-0.846364
-1.79162
-1.10765
-0.651796
0.145508
0.100323
0.377731
0.280211
0.356221
0.33995
0.306637
0.272764
0.277394
0.313193
0.0272315
0.134276
0.110558
0.113315
0.0201331
-0.0422296
0.24013
0.23348
0.274668
0.298593
0.266399
0.300084
0.159623
0.159301
0.162288
0.159105
0.155406
0.157348
0.0168345
0.0223403
-0.0522347
-0.0827687
-0.0965435
-0.0454975
0.0294934
0.027475
0.0240756
0.0241664
0.027938
0.0303521
-0.154042
-0.207926
-0.354985
-0.231439
-0.356854
-0.443099
-0.451775
-0.377472
-0.25595
-0.265446
0.0119751
0.267154
0.122565
0.214006
-0.0475233
0.0298027
0.113784
0.0889737
0.1185
0.0171404
0.10817
-0.161067
-0.655821
-0.564564
0.391386
0.418321
0.208439
0.0195672
-0.202508
-0.0117932
0.187118
0.130957
0.171054
0.235626
0.233405
-0.370164
-0.300102
-0.0678746
0.154083
-0.168045
-0.172049
-0.193064
-0.00146281
-0.0655631
)
;

boundaryField
{
    wall-4
    {
        type            zeroGradient;
    }
    velocity-inlet-5
    {
        type            zeroGradient;
    }
    velocity-inlet-6
    {
        type            zeroGradient;
    }
    pressure-outlet-7
    {
        type            fixedValue;
        value           uniform 0;
    }
    wall-8
    {
        type            zeroGradient;
    }
    frontAndBackPlanes
    {
        type            empty;
    }
}


// ************************************************************************* //
