/*--------------------------------*- C++ -*----------------------------------*\
| =========                 |                                                 |
| \\      /  F ield         | OpenFOAM: The Open Source CFD Toolbox           |
|  \\    /   O peration     | Version:  4.0                                   |
|   \\  /    A nd           | Web:      www.OpenFOAM.org                      |
|    \\/     M anipulation  |                                                 |
\*---------------------------------------------------------------------------*/
FoamFile
{
    version     2.0;
    format      ascii;
    class       surfaceScalarField;
    location    "15";
    object      phi;
}
// * * * * * * * * * * * * * * * * * * * * * * * * * * * * * * * * * * * * * //

dimensions      [0 3 -1 0 0 0 0];

internalField   nonuniform List<scalar> 
1300
(
3.75095
5.62643
-6.16075
3.75095
-5.98237
5.62643
-4.5165
4.5165
-1.4167
1.4167
1.87686
1.8741
-3.74898
3.74898
-4.61987
4.61987
-2.77739
2.77739
-5.24635
5.24635
-5.06853
5.06853
4.68297
-4.68297
-4.87517
4.87517
-1.84091
1.84091
-3.71887
3.71887
3.1735
-3.1735
-4.95546
4.95546
-0.493344
0.493344
-0.553798
4.30475
3.19716
3.19716
-2.49742
2.49742
-4.85096
4.85096
6.21818
-6.21818
9.35374
-9.35374
-3.193
-3.40299
1.33243
-8.13757
-4.64994
-4.64994
-8.44043
8.44043
-2.814
2.81243
2.92227
-2.92227
-1.72558
1.72558
-4.50098
-0.015516
-4.50098
4.48183
0.03467
4.48183
-1.52729
0.110589
-1.52729
4.08292
-4.08292
1.25048
0.166222
1.25048
3.06739
-3.06739
-1.87722
3.75408
1.87373
-1.87191
6.17666
-1.87904
3.75314
-5.04645
5.04645
-3.48499
-0.263984
-3.48499
4.0711
-0.322119
4.0711
-5.2623
5.2623
-4.56675
-0.0531276
-4.56675
4.67474
-0.0548632
4.67474
2.99829
-2.99829
-2.80854
0.0311477
-2.80854
2.72472
0.0526762
2.72472
0.353612
5.27282
-5.98004
8.79248
-5.27282
0.0264634
5.20842
0.0379316
5.20842
-5.10624
0.0377179
-5.10624
5.00999
0.0585363
5.00999
4.77614
-0.0931746
4.77614
-4.79721
0.11424
-4.79721
-3.32247
-3.40626
-4.97717
0.102
-4.97717
-1.89408
0.0531715
-1.89408
1.79078
0.0501239
1.79078
-3.52495
3.52495
-4.09344
0.374562
-4.09344
3.12906
0.0444437
3.12906
1.86859
1.88236
5.61955
-5.61955
2.44605
-4.89318
-0.0622863
-4.89318
-5.02499
-4.32876
5.02499
-0.0695237
-0.805111
0.311767
-0.805111
3.15861
0.0385435
3.15861
2.65381
0.0709045
-2.65381
0.156389
3.40701
-3.40701
1.8506
0.646824
1.8506
-5.57117
5.57117
4.94919
0.0608039
-4.94919
0.098225
6.1575
0.0606877
6.1575
-6.19959
-0.0185935
-6.19959
3.37029
-6.77328
-3.40917
4.76793
0.107244
-4.76793
0.117985
2.9094
0.0128729
2.9094
-2.90199
2.90199
-2.96921
0.046942
-2.96921
-2.15851
0.432935
-2.15851
1.38827
0.33731
1.38827
-4.38686
-0.114123
-4.38686
-4.38081
0.287376
4.38081
0.101016
0.875732
-0.875732
-1.63612
0.108826
-1.63612
-4.22912
-0.157736
4.22912
-0.146201
-3.96563
-0.117286
-3.96563
-3.02266
0.0534455
3.02266
0.0447331
3.1126
0.0460092
-3.1126
0.0452104
-1.87098
3.75333
-1.87998
3.75371
-4.82834
-0.21811
-4.82834
5.18527
-0.138811
5.18527
3.46171
0.257168
-3.46171
-0.0232862
4.32569
-0.254592
4.32569
-5.31162
0.0493216
-5.31162
5.20389
0.0584044
5.20389
4.47365
-0.147966
-4.47365
-0.0930916
4.74148
-0.0667452
4.74148
3.04885
-0.0505665
3.04885
-2.96029
-0.037991
-2.96029
2.83128
-2.83128
2.82898
0.00229547
-2.82898
0.0204406
-11.1326
11.114
-0.0349261
-11.0977
5.1735
5.1735
4.20311
0.57303
4.20311
-5.00931
0.212097
-5.00931
3.32277
-6.73194
3.40101
-6.72347
3.3952
-11.5328
3.34194
-6.7482
5.13005
-5.13005
5.06503
0.0650246
-5.06503
0.0878601
-1.90251
0.00843259
-1.90251
-2.93117
-0.593776
-2.93117
3.97005
-0.445102
3.97005
-3.02863
3.02863
-3.08247
0.0538313
3.08247
0.0465922
4.81674
-0.0752548
-4.81674
-0.0764402
1.04772
0.202764
-1.04772
0.242606
3.599
-0.191981
3.599
-3.23307
-0.17394
-3.23307
-1.86413
-0.0383846
1.86413
-0.0135272
-5.81728
0.246114
-5.81728
-11.1908
0.0930605
-11.1528
-6.10653
-6.10653
2.3339
11.1264
-2.92704
-0.0332557
2.92704
-0.0176401
2.96922
0.0594158
-2.96922
0.0672313
-2.85157
0.0202984
2.85157
0.0504128
-2.55749
0.398977
-2.55749
-0.97081
0.97081
-1.14319
0.17238
1.14319
0.245076
1.14039
-0.264657
1.14039
1.72155
0.0692358
-1.72155
0.085429
-3.86154
-0.104098
-3.86154
5.28615
-0.100884
5.28615
-3.12032
-0.112753
3.12032
-0.071468
-0.0332743
11.1473
-5.14022
0.0339781
5.14022
-11.208
11.242
-3.24295
0.685461
3.24295
0.960167
5.29671
0.274455
-5.29671
0.287407
5.16915
0.0347431
-5.16915
0.0390946
-2.4256
-0.505569
-2.4256
-4.46871
-0.359632
4.46871
-0.498659
-11.475
-0.203493
11.6784
-11.4164
6.02077
0.136721
-6.02077
11.3787
-0.853201
-0.0225312
0.853201
0.117609
1.46342
-0.323028
1.46342
3.76189
-0.162898
-3.76189
-0.0996431
-5.32764
0.0160192
5.32764
-0.0414876
-1.91263
-0.512973
1.91263
-0.449214
-4.26651
4.30506
1.91015
-3.34581
-3.42746
-7.67457
1.85117
1.90216
4.29722
-7.12674
-4.40603
-7.00875
7.27564
-6.98823
-9.30066
9.20749
7.44206
-7.55935
-5.77671
5.8233
6.48008
-6.43535
1.87933
1.87475
7.49576
-7.75975
-13.8357
13.6176
9.93439
-9.98751
11.3843
-11.335
-12.7327
12.7675
-5.75156
5.78271
-6.62145
6.58346
-6.7952
6.72374
-3.28442
-3.43905
9.20411
-9.10211
11.7258
-11.7881
-7.24342
7.61798
3.38388
0.921178
3.42989
-1.88137
3.7607
-1.87177
3.78192
3.40846
-6.69288
3.32348
-6.75095
6.08338
5.64242
-6.01386
-1.66072
-5.84798
5.86085
-5.83028
5.88069
8.94261
-8.95813
-1.88549
3.76024
-1.86822
3.77039
-3.42213
-2.35458
3.37768
0.919533
5.63509
3.56902
-5.74233
-1.26642
-7.64569
7.48279
-7.94889
7.77495
-0.459096
5.82891
-5.36982
4.39186
-1.55694
7.38586
5.71869
5.93079
5.86863
-5.59417
1.1196
-6.48942
-6.39119
-2.68894
2.79776
2.67266
-2.50644
5.87144
1.57062
5.72524
-5.45616
-2.10319
-5.56025
3.81448
2.00882
3.86831
4.04435
2.43573
4.09779
3.02901
-3.03677
0.00775883
-3.0588
6.08782
0.723469
-5.41339
-4.49386
5.56243
1.93334
5.24031
-4.69279
-3.06696
-4.71608
-8.91958
-4.91614
-9.27922
8.21152
5.40609
8.07271
-8.90105
8.85956
6.68442
3.24997
6.62955
-6.36519
-3.62232
-6.45828
10.5774
-2.28906
-8.28832
-7.2674
-5.46531
7.209
4.17528
7.71007
5.05739
7.74916
3.45357
7.12381
-7.62886
2.16354
-3.84917
-1.90239
-3.82873
3.74302
2.03969
3.7957
-4.12782
-2.49363
-4.16107
-4.19762
-2.59758
4.24819
2.33527
-4.30872
-3.64017
4.42147
2.30226
3.11198
-7.51801
3.63622
-7.07527
-6.42467
-2.67744
-6.33681
4.16743
2.60548
-6.77292
-2.52545
10.9371
-5.29469
9.27639
-7.25718
-4.53091
-7.33362
-6.44445
-0.798968
-6.15707
-8.92337
8.4178
-9.10338
8.65827
14.137
-7.09113
-7.04586
-3.97038
-2.46497
3.92517
-0.495281
-3.71081
3.71857
0.049886
3.8318
4.75298
4.2577
-3.88595
-1.94432
-3.81872
3.85617
2.02452
3.87647
6.68064
2.26197
6.71531
-6.43917
-2.51896
-6.5533
9.09973
-8.66679
2.92534
-2.96372
5.19279
2.58216
-5.00081
-2.64488
6.01538
-3.03879
-2.97659
-12.2415
10.5944
1.64713
-4.85563
-0.463762
0.0295817
-5.51327
-3.78739
5.39903
0.531758
11.1261
7.33872
-5.51467
5.76078
6.16378
6.22458
-0.166609
5.85772
-5.17226
5.20139
-2.22933
-2.97207
5.26634
-5.42408
-1.28696
-5.25543
3.96847
0.301163
1.89512
-1.58335
-2.092
-0.596937
-2.00657
1.61404
1.05862
1.81681
0.965638
1.83212
-2.98036
0.563729
2.41663
-2.01472
-1.94271
-3.57391
-0.899427
4.47333
5.46934
2.01345
-5.36969
-0.190562
2.73555
-2.68543
-0.835596
-2.73831
1.96887
-2.80447
-3.50498
-1.76385
5.26883
-3.3704
-0.448328
3.31098
0.557332
-3.77674
-2.07124
3.7298
0.367995
-3.13838
6.25151
-3.11313
-5.0827
2.53251
3.55531
4.54133
-4.7947
2.43813
2.35657
-1.2394
5.17611
0.0641955
4.92152
-6.29217
3.22521
4.67807
2.9399
-4.93524
0.219166
-6.073
10.948
-7.8531
-3.09491
7.22406
3.72395
7.7176
6.41939
-6.15427
13.8719
0.183927
-8.03702
5.88907
-2.94917
5.30774
-8.25691
-11.7271
3.69011
-8.7664
9.26551
-0.499107
-2.43817
-6.46288
11.2046
-1.50895
-9.69562
6.56376
-5.70782
-5.0273
10.7351
-7.99688
8.64963
-3.12675
-5.52287
-7.31437
-4.02058
7.29836
1.56121
-9.91751
12.0811
-2.7937
5.85629
0.773267
5.78954
4.53618
-6.01837
1.48219
3.4607
-6.58746
3.90498
-9.92335
-4.97567
9.6852
-4.70953
-7.65311
-6.87664
-0.776469
2.01024
10.0708
-7.06764
5.39926
1.66838
3.34876
0.527705
-3.35106
-0.477678
0.353258
4.45194
-4.8052
4.14896
4.21986
3.37953
1.07241
3.80689
2.05396
-3.78925
-0.371825
-4.04092
1.44334
-1.70565
-3.56736
5.0107
-3.99092
0.423559
-2.66061
-3.5086
6.16921
-4.563
3.09148
3.16003
5.116
-4.87643
1.36783
-2.41137
-2.46505
2.62309
-4.32874
1.91574
3.09496
4.218
0.577828
4.93941
4.74579
-7.54489
0.46962
8.31481
-7.04839
1.74166
6.00751
-7.14092
0.264273
-6.07253
1.08228
-6.37697
-5.69064
5.49201
-6.29098
-2.7649
5.97897
0.736347
-6.07998
-0.0770905
-5.95106
-2.97231
-6.46403
-2.98006
-6.12332
-9.13433
-1.70071
-7.43362
6.71709
-6.5634
-2.71582
7.06206
1.59621
-7.25319
7.23066
-7.34978
7.02675
0.0949326
3.62364
4.35263
1.88767
-2.38424
4.27191
-4.98419
7.24616
-8.42568
3.44149
4.01113
-6.53009
-4.41455
4.99109
4.10864
5.3284
8.83332
-10.7322
1.89888
-10.8525
12.1534
-1.3009
-16.5673
5.71483
-7.73402
2.68044
0.244901
2.68887
0.674485
2.38657
-3.06105
-2.28923
-2.30276
-2.26522
-3.27848
5.54369
1.1362
-3.32715
2.19095
-3.40676
4.54296
-0.121629
-3.20552
5.18589
-2.79932
5.43079
-3.52839
1.9024
3.21606
5.47073
-2.25467
4.18304
-1.60088
1.74031
-3.99499
-1.53817
-2.98293
5.02261
-3.18628
3.60984
-0.21741
3.82725
-4.00729
0.968506
-0.627764
3.5921
3.74849
4.09951
-3.0271
2.87206
-4.47295
-1.12292
-3.89512
-0.800154
-0.364842
-3.6911
4.05594
6.0853
-6.45015
-5.34826
9.66201
-4.31374
7.75836
-5.43582
-2.32255
-4.28503
-4.38177
3.88605
1.97167
9.73003
0.201501
-5.63732
-4.97076
-4.01059
3.19808
2.00331
-2.07469
3.72182
2.04511
-0.149991
0.636212
1.18059
1.89826
-1.26205
0.160155
1.73811
-1.4232
2.02404
0.71151
-2.09328
0.0867099
-1.41086
3.37973
1.00577
-2.06439
0.802341
1.12895
-3.35828
4.66596
-2.31702
-2.34894
5.79491
1.19767
-3.51469
4.05775
-3.75659
2.28145
-3.18087
-1.23325
-4.98984
-3.41922
-2.43431
4.62526
-3.10938
5.12284
1.12028
-4.93227
6.05256
-3.46696
1.70311
-3.035
3.74651
-1.076
-1.95901
2.66911
2.59971
-2.78933
0.0510165
-0.120211
2.25362
-2.37383
-0.550846
-2.56557
-4.54413
4.91212
-2.16351
4.60164
2.10839
-1.92421
6.52585
1.81726
-3.74147
-3.26544
-3.71376
-1.3849
3.15643
-1.23879
-5.2195
-6.76166
5.36746
-0.445942
-7.31975
9.82589
-2.50614
-5.38641
2.1612
5.06286
-7.97479
1.38734
-4.06981
5.75607
5.82027
5.37433
-10.9089
1.21323
-5.50276
2.92855
-8.43132
6.6525
-4.75003
8.44014
-10.7181
8.00224
-9.12184
5.34522
-3.08609
5.59998
-4.11778
2.68835
-6.70893
-5.14773
6.97222
-3.72225
7.74549
-4.21917
11.9647
-7.01287
7.01696
4.9477
-1.46949
-5.86413
-6.86712
5.39763
0.149843
5.93938
4.94822
-2.89426
4.5764
2.24598
-4.65735
-2.08277
-6.51937
1.86202
-3.35934
-1.89568
3.7577
3.22032
3.74802
1.29265
-3.27035
6.80771
-7.58418
-2.09818
-3.59246
6.78915
-1.39152
4.11873
-7.71119
-2.25824
4.80972
-0.146181
-4.66354
2.28141
-5.04631
1.03738
-6.0837
5.2536
-5.33069
2.16768
-9.9017
-5.08551
-4.96791
-2.25869
-5.09109
-7.58974
5.33105
-1.87491
5.35575
-8.60657
8.46039
-3.54684
8.87789
-5.33429
-1.12974
5.78351
1.24325
10.1211
0.178225
-4.59277
-1.8386
3.89666
-2.05806
1.35948
-3.51287
0.383784
2.50014
3.29477
-6.46861
-0.0614812
-4.65425
-3.88542
7.99406
5.77659
11.8619
1.12969
9.24257
-1.24851
10.3723
4.07989
4.32497
-2.87931
4.7782
1.17663
4.61811
-0.852083
2.75448
1.83678
1.88996
0.795473
2.28937
1.45912
3.25787
0.19682
-2.10594
4.65826
-8.66884
-0.979063
-8.09582
1.11167
5.73193
-4.62026
3.1152
-1.11189
1.05715
0.256281
-1.82052
1.56424
-2.71578
-1.97051
-0.232401
-1.51215
2.31449
1.86758
-2.08209
-0.633695
0.258526
-3.67775
2.92235
-2.87133
-0.27162
5.78094
-2.72455
0.350722
-1.02144
-2.21485
-2.81178
2.72507
6.25449
0.271358
3.14136
5.18348
3.11224
0.217981
6.35129
-6.85039
-3.57206
-5.63716
1.01535
6.0782
2.14814
7.92267
7.09584
5.70432
-2.00686
-9.59104
6.85601
-2.07781
5.55511
-0.891572
-5.19212
4.89668
2.34949
-5.63303
0.302336
-4.88979
-6.9676
-0.223245
8.68363
-9.89789
8.76815
5.79584
1.63778
-4.30051
-0.667399
4.12813
0.196841
10.5691
-1.12214
-6.89264
8.01478
-4.60979
3.63073
0.945652
2.77617
2.50989
1.398
-5.49464
-10.1149
-1.76308
-1.5952
-4.11202
0.361312
-2.22889
6.28383
-2.65311
3.96128
5.36167
6.41882
-2.19458
-4.25556
6.50832
-2.54704
3.87178
)
;

boundaryField
{
    wall-4
    {
        type            calculated;
        value           uniform 0;
    }
    velocity-inlet-5
    {
        type            calculated;
        value           uniform -3.75095;
    }
    velocity-inlet-6
    {
        type            calculated;
        value           uniform -5.62643;
    }
    pressure-outlet-7
    {
        type            calculated;
        value           nonuniform List<scalar> 8(6.16075 5.98237 6.59599 6.80514 6.72873 6.77946 6.72378 6.73713);
    }
    wall-8
    {
        type            calculated;
        value           uniform 0;
    }
    frontAndBackPlanes
    {
        type            empty;
        value           nonuniform 0();
    }
}


// ************************************************************************* //
