/*--------------------------------*- C++ -*----------------------------------*\
| =========                 |                                                 |
| \\      /  F ield         | OpenFOAM: The Open Source CFD Toolbox           |
|  \\    /   O peration     | Version:  4.0                                   |
|   \\  /    A nd           | Web:      www.OpenFOAM.org                      |
|    \\/     M anipulation  |                                                 |
\*---------------------------------------------------------------------------*/
FoamFile
{
    version     2.0;
    format      ascii;
    class       volVectorField;
    location    "15";
    object      U;
}
// * * * * * * * * * * * * * * * * * * * * * * * * * * * * * * * * * * * * * //

dimensions      [0 1 -1 0 0 0 0];

internalField   nonuniform List<vector> 
918
(
(0.985211 -0.000444575 0)
(0.0049918 2.96626 0)
(-0.00502705 1.63335 0)
(0.979755 0.0020765 0)
(-0.00054224 1.59319 2.56812e-21)
(-0.00702516 2.94877 -1.80548e-18)
(0.849981 1.19303 7.53571e-19)
(0.483853 0.228646 -8.53283e-21)
(0.99992 -0.000360253 0)
(-0.00584531 1.09918 0)
(-0.000510925 1.33305 0)
(0.814034 -0.00629607 0)
(0.0111534 2.93027 0)
(0.00142317 2.79504 0)
(-0.017379 3.16731 1.11435e-18)
(-0.00501752 1.50771 -1.49529e-20)
(0.582804 0.102679 5.28302e-19)
(0.167393 1.16925 6.62326e-19)
(0.964259 0.0052215 0)
(-0.00225751 1.45732 0)
(0.164251 0.269745 -4.52262e-19)
(1.00155 -0.00518058 0)
(1.00023 -0.00980604 0)
(0.975653 -0.00653756 0)
(0.731312 -0.0248646 0)
(0.0182914 2.62974 0)
(-0.015234 2.91019 6.17673e-19)
(-0.0133223 1.66015 0)
(-0.0132187 1.76212 0)
(-0.0124316 1.65643 0)
(-0.000816583 1.81347 0)
(-0.000538187 1.61158 -2.03256e-21)
(-0.00448203 1.51577 0)
(-0.0206222 2.98758 -6.28898e-23)
(-0.016712 3.00531 1.40349e-18)
(0.00210995 3.00022 0)
(0.865987 -0.00664116 0)
(0.38021 0.917172 -4.68688e-20)
(0.843283 1.2078 -1.06938e-18)
(0.990587 1.05943 9.97875e-19)
(0.705547 1.29747 -1.76174e-19)
(0.710351 1.27386 1.002e-18)
(0.511855 0.29899 8.32564e-21)
(0.504542 0.201777 0)
(1.18904 0.573307 0)
(0.479244 0.317666 3.90959e-20)
(0.441234 0.222124 -4.05704e-20)
(0.920402 -0.00673613 0)
(1.00042 3.03488e-05 0)
(0.999941 0.000362525 0)
(1.00365 -0.00773753 0)
(1.00086 -0.00102129 0)
(1.00015 6.22007e-06 0)
(0.0578755 1.55987 -4.67065e-19)
(-0.0253439 1.16721 0)
(0.00673926 1.00405 0)
(-0.0389546 1.26416 0)
(-0.0175102 1.18586 0)
(-0.0061454 1.57449 0)
(-0.00367711 1.49485 0)
(-0.00156047 1.32825 0)
(-0.0108009 1.5215 0)
(-0.00690487 1.3481 0)
(0.890521 -0.000926769 0)
(0.89572 0.00870518 0)
(0.827112 0.000533959 0)
(0.887981 0.0134166 0)
(0.799553 -0.00815224 0)
(0.0147156 3.00039 6.59712e-19)
(0.0115488 3.00787 0)
(0.00614592 3.00289 0)
(0.0135697 2.99732 7.33658e-24)
(0.00800404 2.95843 -9.80495e-19)
(0.0145136 2.98202 0)
(0.0108129 2.90359 0)
(0.0248233 2.93028 1.29242e-24)
(0.0041387 2.82545 0)
(0.0319691 2.91556 0)
(-0.00656808 2.74411 0)
(0.310521 3.56703 0)
(-0.132792 3.6485 0)
(0.140808 3.25831 -1.03706e-18)
(-0.0117528 2.99152 0)
(-0.01152 1.79365 0)
(-0.00441771 1.64069 1.4751e-20)
(-0.00572249 1.52374 -2.36678e-20)
(0.646015 0.166275 -1.81991e-19)
(0.606107 0.0667401 -1.76023e-19)
(0.611013 0.194333 -5.43491e-19)
(0.564323 0.129231 -3.63501e-19)
(0.246789 1.01324 0)
(0.24792 1.2725 -6.52892e-19)
(0.324797 1.26611 1.07719e-18)
(0.988204 0.00843135 0)
(0.943971 0.00640494 0)
(1.00032 0.000571979 0)
(1.00282 0.00933654 0)
(1.00271 0.00844846 -9.59023e-19)
(0.99204 0.00980581 7.24144e-19)
(-0.0130596 1.57659 0)
(-0.00797879 1.44393 0)
(-0.0187845 1.66839 0)
(-0.0155432 1.60937 0)
(-0.000776366 1.4822 0)
(0.239112 0.283249 1.3938e-19)
(0.283242 0.265084 0)
(0.993484 -0.0084067 0)
(0.954169 -0.00681268 0)
(0.862721 0.0171073 0)
(0.829717 0.0337718 0)
(0.7782 -0.014005 0)
(1.01861 -0.00581344 0)
(0.776367 0.0450275 0)
(0.646698 -0.0168658 7.00314e-19)
(-0.0351486 2.86635 2.90953e-19)
(0.0434329 2.90788 0)
(0.0573977 2.88284 0)
(-0.0058212 2.69635 0)
(-0.0128767 2.98529 5.64561e-19)
(-0.0183349 2.89558 0)
(-0.0153995 2.98813 -1.79298e-18)
(-0.0134069 2.9252 6.20441e-19)
(-0.0103389 1.81287 0)
(-0.0082604 1.8077 0)
(-0.00108702 1.64079 -2.86618e-22)
(-0.00307571 1.61249 0)
(-0.00593373 1.50824 0)
(0.930268 -0.00357795 0)
(0.858901 -0.00335235 0)
(0.857201 0.00913836 0)
(0.940019 -0.00414385 0)
(0.882598 -0.00611938 0)
(0.494525 1.11491 4.78707e-20)
(0.548671 1.17617 0)
(0.337624 0.845485 1.53852e-21)
(0.282516 0.70665 0)
(0.956568 1.08835 -2.88423e-19)
(1.06994 0.897556 5.92833e-19)
(0.427979 1.34274 0)
(0.559729 1.35997 0)
(0.540788 1.29553 0)
(0.0980481 0.122883 -1.01225e-19)
(0.54343 0.273897 0)
(0.528707 0.176529 1.05061e-19)
(1.04206 0.945951 0)
(1.11149 0.792111 0)
(1.13793 0.738285 -5.20594e-19)
(1.16731 0.631144 0)
(1.21828 0.413277 6.0339e-20)
(0.953517 -0.00728091 0)
(0.962032 -0.00937757 0)
(0.901464 -0.00820923 0)
(0.984061 -0.00894731 0)
(0.975423 -0.0087021 0)
(0.937246 -0.0062547 0)
(1.00004 0.00224151 0)
(1.00086 0.00147409 0)
(0.999903 0.000815599 0)
(0.067111 1.7603 2.57659e-19)
(0.0844807 1.51653 0)
(0.0381927 1.77215 3.97748e-19)
(0.0348821 1.59035 -3.40252e-19)
(0.0854331 1.16111 -5.45234e-19)
(-0.0082882 1.10817 0)
(0.105956 1.03179 0)
(-0.0276162 1.36726 0)
(-0.00470138 1.25637 0)
(-0.00913848 1.70813 -1.06401e-21)
(-0.00494574 1.60252 0)
(-0.00638261 1.69142 -5.02175e-20)
(-0.0045375 1.56393 9.672e-20)
(-0.0166966 1.43356 0)
(-0.00996651 1.47496 0)
(-0.00285018 1.29783 0)
(-0.0145512 1.54018 0)
(-0.0103137 1.37195 0)
(0.963889 0.0140943 0)
(0.909407 0.00367287 0)
(0.94699 0.00892538 0)
(0.879821 0.00145501 0)
(0.828481 -0.0046334 0)
(0.91479 4.8715e-05 0)
(0.908084 0.00581002 0)
(0.828317 -0.00403195 0)
(0.00579116 3.06478 -5.74427e-21)
(0.0163172 3.0581 0)
(0.014662 2.96914 0)
(0.00847483 2.87636 0)
(0.928354 3.98625 0)
(1.2438 3.31586 1.01946e-18)
(0.0711866 3.08388 0)
(-0.0264772 2.91247 0)
(-0.0119807 1.79374 0)
(-0.012709 1.79198 0)
(-0.0117728 1.79257 0)
(-0.00626267 1.80275 3.83764e-21)
(-0.0116945 1.7981 0)
(-0.00704723 1.79632 0)
(-0.00142549 1.53884 1.4082e-21)
(-0.00350376 1.66855 2.87558e-20)
(-0.0049931 1.65673 2.41829e-20)
(-0.0038317 1.52851 0)
(0.676608 0.122279 2.65325e-19)
(0.62711 0.0311048 -2.58402e-19)
(0.175851 1.44348 0)
(0.295427 0.747159 -2.25486e-19)
(0.140022 1.52658 -7.39731e-19)
(0.205735 1.19489 7.37885e-19)
(0.901919 0.0100037 0)
(0.968252 0.0126857 0)
(0.975933 0.0114819 0)
(0.925626 0.00854894 0)
(-0.0169741 1.55483 0)
(-0.0166867 1.56613 0)
(-0.0105765 1.40482 0)
(0.435797 0.333774 3.58202e-19)
(0.3602 0.312959 -4.35875e-19)
(0.377162 0.241943 0)
(1.13515 0.0828867 -5.66382e-21)
(1.11969 0.0380266 0)
(1.05201 0.0331946 0)
(0.965656 0.00525307 0)
(0.688317 0.0820321 0)
(0.714915 0.0611847 -1.1275e-18)
(0.629646 0.0121886 4.31629e-19)
(0.00995797 2.98199 3.85059e-19)
(-0.0326313 2.86764 4.76642e-20)
(0.00385055 3.05024 -1.24549e-20)
(0.0198927 3.04356 4.49042e-19)
(-0.0150265 2.99656 2.06739e-20)
(-0.013018 2.94944 -8.37564e-23)
(-0.0173078 3.01202 -3.93522e-19)
(0.0148103 3.02406 2.84524e-19)
(0.00729215 3.03678 -4.43846e-19)
(0.941649 0.00838602 0)
(0.935926 0.00388091 0)
(0.864535 0.00119408 0)
(0.955677 0.0129136 0)
(0.940651 0.0136222 0)
(0.87965 0.00807038 0)
(0.917008 0.00322434 0)
(0.92184 0.0109684 0)
(0.835356 0.00188593 0)
(0.708993 1.409 3.46285e-19)
(0.747518 1.52196 0)
(0.219179 0.368805 1.82463e-20)
(0.17279 0.535475 1.38249e-19)
(0.250686 0.655559 -7.89271e-20)
(0.212814 0.543423 1.41301e-19)
(0.279891 0.664387 5.99014e-19)
(0.118769 0.156557 1.89549e-19)
(0.591517 0.225453 3.93048e-19)
(0.564879 0.246021 9.60969e-20)
(0.543502 0.157515 1.98563e-19)
(1.20584 0.468907 3.14366e-19)
(1.22131 0.260406 3.2992e-19)
(0.022654 1.76678 1.60726e-19)
(0.0246067 1.61122 0)
(1.00601 0.0253581 0)
(0.976525 0.0163047 0)
(0.932945 -0.00152847 0)
(0.0110221 3.07478 0)
(0.0200031 2.94406 7.6186e-19)
(0.0165508 2.95651 0)
(0.00603755 2.85083 -7.55874e-19)
(0.00597399 3.09113 1.79757e-19)
(0.00740526 3.08236 0)
(0.783065 1.82845 -2.43751e-19)
(1.25059 2.51196 6.72802e-19)
(0.767216 1.96986 -1.50782e-18)
(0.0214191 2.98518 -2.69948e-19)
(0.0372123 3.00858 0)
(-0.0314494 2.8837 0)
(-0.000509062 1.66369 -4.85747e-21)
(-0.00133032 1.67108 -6.53184e-20)
(0.000653532 1.54808 -6.7337e-21)
(0.246718 1.32727 6.75496e-19)
(0.264841 0.499479 -4.62059e-19)
(0.0739031 1.70618 4.93834e-19)
(0.109 1.625 -6.11323e-19)
(0.115429 1.38852 8.14893e-20)
(0.00198913 3.11898 -1.04768e-18)
(0.0151019 3.11839 1.12588e-18)
(-0.0084696 2.98141 4.83232e-19)
(-0.00314876 2.97807 -4.2097e-19)
(-0.0212789 2.88228 -4.92157e-19)
(0.00887484 3.10009 -1.31475e-18)
(0.00259627 3.10527 1.28385e-18)
(0.195532 0.575378 0)
(0.139532 0.535924 -2.88052e-19)
(0.148863 0.198521 1.25109e-19)
(0.31882 0.801256 5.74473e-19)
(0.178894 0.203393 -8.79463e-19)
(1.21647 0.170718 -6.54927e-20)
(1.21939 0.31195 0)
(1.20369 0.118607 1.31578e-19)
(-0.00314224 1.74386 -1.34094e-21)
(0.00865807 1.76287 0)
(0.00413872 1.60492 0)
(0.324635 1.1893 -2.35537e-19)
(0.366661 1.01925 -5.11863e-19)
(0.181708 0.313859 8.52629e-19)
(1.00576 -0.0110903 0)
(1.00775 -0.00780745 1.744e-19)
(-0.0104349 1.80151 0)
(-0.0182322 1.81013 0)
(1.00244 0.00368746 1.9443e-21)
(1.00318 0.00919092 3.59409e-19)
(-0.0065344 1.80634 -5.04074e-21)
(-0.00529387 1.80512 0)
(0.0395874 3.1843 7.75086e-20)
(0.399287 3.50327 0)
(1.09987 0.645092 7.23282e-20)
(1.01173 0.0121351 -2.49295e-21)
(1.02025 -0.0142169 0)
(1.00175 0.000234067 3.51454e-23)
(-0.159186 1.33263 0)
(-0.0766619 2.26763 0)
(-0.0366286 1.74902 0)
(-0.0447439 1.89074 6.63092e-20)
(-0.0233867 1.84485 4.21549e-20)
(1.0035 0.0091473 2.31602e-21)
(1.04534 0.0133227 0)
(1.07065 0.026976 0)
(-0.0137634 1.7926 0)
(-0.0103838 1.81755 0)
(-0.0236796 1.79345 0)
(0.291911 1.22785 -4.58343e-19)
(1.01117 -0.00986737 0)
(1.00964 -0.0149366 0)
(1.00234 0.000573092 2.1952e-19)
(1.00587 -0.00502033 -2.62682e-19)
(1.00095 -0.000894447 0)
(-0.0153167 1.79142 0)
(-0.0130014 1.79449 0)
(-0.0124192 1.79475 0)
(-0.0215419 1.79648 0)
(-0.0165999 1.79365 0)
(-0.0202161 1.79666 0)
(1.0242 -0.00252223 0)
(1.02209 0.015458 -1.08958e-21)
(0.79881 1.25864 5.44996e-19)
(1.00292 0.000384711 -2.22377e-19)
(1.00335 0.00568543 2.67194e-19)
(1.00121 0.00200438 0)
(1.01113 0.0099982 2.15691e-19)
(1.00792 0.00817278 -2.68739e-19)
(1.00835 0.0142401 0)
(-0.00931424 1.81758 0)
(-0.00691576 1.81249 1.26338e-20)
(-0.00738246 1.81166 -8.70341e-21)
(1.18149 0.255107 -1.13457e-19)
(1.12037 0.0814968 0)
(0.0570379 3.07913 -4.72319e-19)
(0.0690693 2.85101 -3.88367e-20)
(0.146847 3.2006 7.20541e-19)
(0.141538 3.22896 1.99346e-20)
(0.13917 3.24395 0)
(0.0227164 3.13897 9.85809e-20)
(0.0812145 3.16345 4.60415e-19)
(0.0743795 3.19089 -1.91812e-19)
(0.027124 3.12816 0)
(0.704177 0.32745 0)
(0.623081 0.394397 0)
(1.08049 0.674292 -2.73541e-19)
(1.07391 0.807058 4.21357e-19)
(1.13506 0.560979 0)
(1.16784 0.51055 0)
(1.01556 0.0130713 -4.01865e-19)
(1.01364 0.0149713 5.0182e-19)
(1.02278 -0.0162713 0)
(1.01576 -0.0221452 0)
(1.00703 0.00301379 0)
(1.00994 0.00358708 0)
(1.004 0.0022979 0)
(1.00963 0.00694016 0)
(1.00722 0.00548102 0)
(1.00562 0.00493222 0)
(-0.155775 1.36621 0)
(-0.146604 1.40813 0)
(-0.143855 1.28327 0)
(-0.00843973 1.25921 0)
(-0.112287 2.36828 0)
(0.0370243 2.3885 -2.86356e-19)
(-0.0701689 2.26828 0)
(-0.038335 2.15646 1.36585e-19)
(-0.0328344 1.99445 -1.30254e-19)
(-0.0306165 1.75411 0)
(-0.021087 1.76168 0)
(-0.0533409 1.72799 0)
(-0.0413105 1.68886 0)
(-0.0843009 1.841 -3.64467e-20)
(-0.0370598 1.85778 5.32386e-20)
(-0.0434965 1.88739 6.58379e-20)
(-0.0327672 1.87119 0)
(-0.0172903 1.84529 -9.37643e-20)
(-0.00850104 1.83633 -4.90668e-20)
(-0.0776013 1.83327 2.89384e-20)
(-0.0502955 1.84367 -6.9484e-20)
(-0.0575105 1.86049 -8.64176e-20)
(1.01136 0.016542 3.92144e-19)
(1.01136 0.00589362 -4.83146e-19)
(1.00544 0.0199145 -4.11585e-19)
(0.993219 0.0154699 5.21816e-19)
(1.04083 0.0208217 0)
(1.0387 0.010002 0)
(1.06283 0.0412514 0)
(1.05002 0.0232752 0)
(1.05622 0.0115641 0)
(1.10415 0.07506 0)
(1.08009 0.047546 0)
(1.09076 0.035856 0)
(-0.0105414 1.80753 -1.51437e-21)
(-0.0139609 1.7967 0)
(-0.0116941 1.8007 0)
(-0.0104356 1.82143 1.37088e-20)
(-0.00982686 1.82242 -6.37953e-22)
(-0.0186117 1.79265 1.36671e-20)
(-0.0183968 1.79322 -1.38298e-20)
(-0.0219388 1.79573 0)
(-0.0186851 1.79604 0)
(-0.0177573 1.79625 0)
(-0.0247522 1.79276 0)
(-0.0244688 1.78601 0)
(0.452627 1.31558 9.07582e-19)
(0.404097 1.38135 3.29278e-19)
(0.628921 2.43958 -1.52346e-19)
(0.293966 2.5497 3.9275e-19)
(0.562412 2.2828 -1.74569e-19)
(1.02064 -0.008857 0)
(1.01586 -0.00909012 0)
(1.01642 -0.0148398 0)
(1.00807 -0.000916671 0)
(1.00446 -0.00127258 0)
(1.00715 -0.00488291 0)
(1.01019 -0.00359919 0)
(1.0135 -0.00457602 0)
(1.02265 0.0155276 3.83254e-19)
(1.01475 0.0217879 -4.84234e-19)
(1.02456 0.0106692 -3.82158e-19)
(1.02085 0.00715936 4.79356e-19)
(0.763407 1.28597 0)
(0.682225 1.35461 6.49783e-19)
(0.871434 1.18839 3.85735e-19)
(0.905257 1.16906 -5.1216e-19)
(1.13198 2.61971 -6.06025e-19)
(0.831878 0.100071 2.70099e-19)
(1.12215 0.0949831 0)
(1.16266 0.168698 9.73178e-20)
(1.15732 0.15079 4.16713e-21)
(0.971575 0.123803 0)
(0.148818 2.97285 7.60049e-20)
(0.128484 2.87885 -5.95685e-19)
(0.0444865 2.34796 4.4536e-19)
(0.115701 0.127182 -1.82117e-19)
(0.344505 3.43073 -4.64405e-19)
(0.198281 3.3232 0)
(0.238445 3.36689 6.04803e-19)
(0.256295 3.04339 -5.99853e-19)
(0.347656 3.19957 0)
(0.0080046 3.12059 2.42949e-20)
(0.0179858 3.12974 -3.1632e-19)
(0.0164514 3.12549 4.65589e-19)
(0.0388827 3.14011 0)
(0.0377375 3.15212 0)
(1.21371 2.61849 0)
(0.502418 0.840316 -2.08023e-19)
(1.01489 0.980791 -2.18189e-19)
(0.960598 1.05323 0)
(0.800334 0.956703 6.99318e-20)
(1.03686 0.869979 3.16692e-20)
(0.405626 0.480234 -4.99139e-19)
(0.727445 0.323416 -2.22697e-20)
(0.711449 0.28626 2.07466e-19)
(0.623743 0.427379 1.67527e-20)
(0.566167 0.418118 -6.89812e-19)
(0.708662 0.353447 0)
(0.709451 0.430755 3.44771e-19)
(0.716076 0.423429 0)
(0.667601 0.408771 0)
(0.673124 0.340925 0)
(0.734297 0.600066 1.12776e-19)
(1.17679 0.269977 7.55298e-20)
(1.17808 0.406541 0)
(1.18789 0.36493 0)
(0.769382 0.214265 3.09145e-19)
(0.779265 0.525216 -1.70345e-19)
(0.698005 0.507137 2.71705e-19)
(0.898805 0.396546 -2.46681e-19)
(1.01928 0.0172588 2.61129e-19)
(1.01746 0.0140007 -2.68411e-19)
(1.01362 0.0176175 0)
(1.02237 -0.00796376 0)
(1.02166 -0.0168666 -2.35644e-19)
(1.01183 -0.020734 2.32771e-19)
(1.0355 0.00591151 0)
(1.02886 0.0119876 0)
(1.01156 0.00388836 0)
(1.01497 0.00819629 0)
(1.01765 0.00334198 0)
(1.01381 0.00102567 0)
(-0.149413 1.48201 0)
(-0.113379 1.52825 0)
(-0.19298 1.23069 2.77656e-19)
(0.280421 1.23605 2.75269e-19)
(0.035796 1.20301 5.83288e-19)
(0.182402 1.1906 -9.43908e-19)
(-0.0318026 1.2757 0)
(-0.31452 1.97387 5.07875e-19)
(-0.349369 1.90747 0)
(0.46973 2.3395 2.5759e-19)
(0.303961 2.52236 1.71917e-19)
(-0.18565 1.84018 -4.48305e-19)
(0.290369 1.13364 2.96692e-19)
(0.0121357 1.23137 -2.35091e-19)
(0.37165 1.17576 7.43007e-19)
(0.113128 1.84809 0)
(0.308963 1.88108 -5.62215e-19)
(-0.157619 1.95679 -1.98924e-20)
(-0.0350003 2.02721 0)
(-0.174413 2.07438 7.99382e-20)
(-0.143765 1.99756 0)
(-0.0364484 2.12667 -1.51955e-19)
(-0.0226793 2.05807 0)
(-0.0830235 1.78397 -2.82046e-20)
(-0.108019 1.81244 0)
(-0.104172 1.73671 0)
(-0.0872093 1.75717 3.18218e-20)
(-0.0499394 1.91106 -8.37914e-21)
(-0.0375834 1.9734 1.4586e-19)
(-0.0372628 1.94664 1.03355e-21)
(-0.0428506 1.82024 2.49355e-20)
(-0.0546705 1.81273 1.53112e-20)
(-0.0216914 1.77012 0)
(-0.0207871 1.77154 0)
(-0.157405 1.87532 4.37877e-20)
(-0.148474 1.75241 2.32741e-20)
(-0.138856 1.81972 -3.5038e-20)
(-0.220277 1.88985 0)
(-0.0157419 1.81181 -4.98381e-20)
(-0.0152336 1.82005 2.28497e-20)
(-0.0155262 1.81977 -7.14599e-21)
(-0.0358071 1.81827 -2.98896e-20)
(-0.0173701 1.82988 -1.15456e-20)
(-0.0198073 1.83811 5.9742e-20)
(1.02275 0.00477499 -2.56264e-19)
(1.01857 0.00927971 2.60827e-19)
(1.0173 0.000968249 0)
(0.998776 0.0452784 3.65665e-19)
(0.993295 0.0328957 -4.3909e-19)
(0.966308 0.024156 5.09838e-19)
(0.993756 0.0805363 -4.83753e-20)
(1.02533 0.00366435 0)
(1.03154 0.012097 2.15099e-19)
(1.02781 0.00601901 -2.11241e-19)
(1.03645 0.0392974 -1.1609e-20)
(1.0405 0.0265628 1.03268e-19)
(1.03262 0.0524551 0)
(1.02732 0.0419059 -3.88972e-20)
(1.02259 0.0234498 0)
(1.02001 0.0222677 0)
(1.03745 0.00690631 0)
(1.03149 0.00645994 0)
(1.02965 0.0238457 8.10484e-20)
(1.03179 0.0173752 -1.82239e-19)
(1.03093 0.0287054 -8.11294e-20)
(1.03064 0.0285805 -9.52664e-20)
(1.02908 0.0559052 1.67784e-19)
(1.06407 0.05087 0)
(1.05776 0.0906012 0)
(-0.0159818 1.81226 -2.02338e-20)
(-0.0149699 1.80072 -1.76667e-21)
(-0.0167382 1.80042 0)
(-0.0109331 1.81375 2.15419e-20)
(-0.0101967 1.80865 3.14784e-21)
(-0.0103613 1.81279 -3.41983e-21)
(-0.00796641 1.83401 4.11518e-20)
(-0.0150886 1.82497 -2.65037e-21)
(-0.014708 1.82573 1.28664e-20)
(-0.00903956 1.82725 -2.1139e-20)
(-0.00820304 1.82914 2.51228e-20)
(-0.0221329 1.79475 4.68029e-22)
(-0.0210009 1.79592 2.26157e-20)
(0.526952 1.23382 -4.73335e-19)
(0.551788 1.3283 -6.52789e-19)
(0.649236 1.38231 -6.27952e-19)
(0.53737 1.40478 -3.17508e-19)
(0.53573 1.4173 0)
(0.605828 2.4174 1.10378e-19)
(0.702257 2.38279 2.23084e-19)
(0.391922 2.54606 1.10004e-19)
(0.334644 2.6454 -9.36383e-20)
(0.512685 2.61449 1.351e-19)
(0.526517 2.47555 0)
(0.54413 2.46988 -3.4907e-19)
(0.0546308 2.51176 7.33609e-19)
(0.236514 2.54939 -4.21847e-20)
(0.185046 2.51241 -8.93271e-19)
(0.919317 2.34209 1.43616e-19)
(0.825631 2.33861 0)
(1.01066 -0.000272454 8.76027e-21)
(1.01394 -0.00520935 -7.14529e-21)
(1.016 -0.0048841 -1.29285e-19)
(1.01317 -0.00429384 1.28532e-19)
(1.01294 0.000306313 0)
(0.649329 1.26321 0)
(0.647197 1.15981 0)
(0.746826 1.06634 0)
(0.634734 1.10636 0)
(1.16682 2.63864 4.79587e-20)
(1.03721 2.35875 0)
(0.790427 2.27558 -2.05529e-21)
(0.830253 2.47212 0)
(0.896418 2.55988 -9.46237e-21)
(0.912073 2.52562 6.42452e-21)
(0.836444 0.13257 0)
(0.804041 0.150633 7.82841e-20)
(0.910279 0.121888 3.93561e-19)
(0.861475 0.114125 -1.60254e-19)
(0.85659 0.0732408 -4.76401e-19)
(1.02297 0.214075 -2.00267e-19)
(0.957637 0.268593 -1.52052e-20)
(0.888666 0.263836 3.4967e-19)
(0.963742 0.208554 2.59443e-19)
(0.930607 0.161581 -4.88477e-19)
(0.899342 0.175539 6.32461e-20)
(0.915496 0.239878 -1.22402e-19)
(0.898205 0.195664 0)
(0.969375 0.162471 2.32231e-19)
(1.00011 0.162366 0)
(0.997322 0.196354 0)
(1.05434 0.0976728 6.9216e-20)
(1.01814 0.149524 -1.29972e-20)
(1.01459 0.213336 -3.80247e-20)
(1.04697 0.179647 0)
(1.01359 0.0240365 1.95836e-19)
(1.02264 0.043438 2.28521e-19)
(1.02022 0.0270114 -1.94291e-19)
(1.01435 0.048133 -1.53982e-19)
(1.00157 0.0484902 -2.58789e-19)
(0.975457 0.12651 0)
(0.985143 0.0785841 0)
(0.967512 0.0470194 -1.85461e-19)
(0.931288 0.0556028 7.73512e-20)
(0.997529 0.0790958 2.18311e-19)
(1.01884 0.0979556 -2.13182e-19)
(1.02611 0.121545 1.95063e-19)
(0.993874 0.120457 0)
(1.03038 0.088035 0)
(1.01719 0.0747812 -9.06195e-20)
(1.01408 0.0774348 -1.7456e-19)
(0.568696 1.06937 -1.24645e-19)
(0.629351 1.49539 2.23988e-19)
(1.1514 2.78516 1.57089e-19)
(1.22514 3.1036 -7.75445e-20)
(1.23523 2.74357 6.08858e-19)
(1.27309 2.72342 -3.60597e-19)
(1.19265 2.34869 -4.00382e-21)
(1.20943 3.01153 2.32328e-19)
(1.2219 2.97993 -2.80319e-19)
(1.21639 3.25325 -2.77919e-19)
(1.37586 2.9848 3.84981e-19)
(1.37039 2.89648 0)
(0.506504 0.850749 -9.18542e-21)
(0.156907 1.30193 3.40093e-19)
(0.520317 0.547388 3.32418e-19)
(0.344504 0.318905 3.59126e-19)
(0.560825 0.450912 3.85276e-19)
(0.540794 0.502361 -6.06077e-19)
(0.542966 0.525437 4.9631e-19)
(0.515511 0.484965 -1.99215e-19)
(0.478712 0.431966 4.63933e-19)
(0.773666 0.256258 -1.72084e-19)
(0.741953 0.299265 0)
(0.737713 0.251011 1.14314e-20)
(0.690006 0.522448 1.76656e-19)
(0.673775 0.488746 -6.53143e-19)
(0.60457 0.507126 1.96138e-20)
(0.626646 0.482034 0)
(0.627456 0.735369 1.29067e-19)
(0.775463 0.767695 3.15237e-20)
(0.707626 0.851616 -4.5855e-20)
(0.817099 0.794057 -8.57955e-21)
(0.866959 0.833507 1.84995e-20)
(0.87356 0.83953 -1.8942e-20)
(0.780825 0.627356 -1.94026e-19)
(0.867107 0.682181 7.9703e-21)
(0.929728 0.695019 0)
(0.920306 0.671582 -3.34459e-21)
(0.978946 0.303275 5.15101e-20)
(1.07123 0.27853 -1.07427e-20)
(1.00768 0.256859 8.17519e-20)
(0.956506 0.332119 -1.23364e-19)
(0.992067 0.397127 0)
(1.05244 0.389248 0)
(0.883253 0.32482 4.05619e-21)
(0.834142 0.269732 0)
(0.83499 0.2606 1.85113e-19)
(0.887318 0.266508 -7.20434e-21)
(0.886822 0.398484 6.7277e-19)
(0.831463 0.462396 1.73198e-19)
(0.842338 0.427186 -2.24073e-19)
(0.787788 0.41532 2.40588e-19)
(0.77199 0.414479 1.69265e-19)
(0.769036 0.407902 -1.65401e-19)
(1.02506 -0.0123417 2.04968e-19)
(1.02437 -0.00871317 0)
(1.02206 -0.00882588 1.38549e-19)
(1.02393 -0.0130194 -3.06177e-19)
(1.03243 -0.000360212 1.50268e-19)
(1.02663 0.010386 -3.17975e-19)
(1.02576 0.0144036 0)
(1.02136 0.0140533 -6.64845e-20)
(1.01977 0.00629639 1.65476e-19)
(1.01677 0.010517 -8.40832e-20)
(1.0211 0.0121681 6.27687e-20)
(-0.0696598 1.67275 0)
(-0.122279 1.7182 0)
(-0.100888 1.59488 0)
(-0.0612386 1.61749 0)
(-0.289734 1.64337 -2.71486e-19)
(-0.277094 1.47792 7.90059e-20)
(-0.343204 1.91686 7.32064e-20)
(-0.416338 1.67763 -1.92217e-19)
(-0.195322 1.75768 -1.69024e-21)
(-0.211046 1.74946 -2.92777e-22)
(-0.250504 1.62215 4.96992e-20)
(-0.228572 1.63052 8.97608e-20)
(-0.17216 1.6557 6.94937e-21)
(-0.161412 1.69323 8.03771e-23)
(-0.207262 2.14264 -8.23957e-20)
(-0.223949 2.22844 0)
(-0.32083 2.23314 -4.03035e-20)
(-0.372139 1.99133 -4.09476e-20)
(-0.0384141 2.28196 8.33213e-20)
(-0.036526 2.56599 0)
(0.0715682 2.54951 -4.77815e-20)
(0.143012 2.57661 3.39643e-20)
(-0.197971 2.28134 1.64088e-19)
(-0.284462 2.26071 -1.43413e-19)
(-0.206607 2.43794 0)
(-0.123178 1.86826 -6.90241e-20)
(-0.0955189 1.86718 -1.26665e-19)
(-0.101403 1.85274 0)
(-0.0984125 1.92819 -3.88565e-21)
(-0.1375 1.92726 4.03761e-20)
(-0.0441193 1.78231 5.11864e-21)
(-0.030174 1.78412 -7.77676e-20)
(-0.0315812 1.79275 2.01053e-20)
(-0.0480498 1.79438 2.87665e-20)
(-0.0675429 1.79414 0)
(-0.0288063 1.7929 0)
(-0.0251881 1.78536 2.34399e-20)
(-0.0268674 1.79318 -7.83799e-21)
(-0.026887 1.79305 0)
(-0.0234223 1.7781 1.7887e-20)
(-0.022787 1.77814 -3.5244e-20)
(1.03236 0.017513 0)
(1.03493 0.0176772 -1.99518e-20)
(1.03578 0.0189074 -1.45776e-19)
(1.03392 0.0197566 0)
(1.03354 0.0214865 0)
(1.03822 0.0107916 -5.34532e-21)
(1.03752 0.00970464 2.44852e-19)
(1.03399 0.00956637 2.97814e-19)
(1.03188 0.00737435 0)
(1.02588 0.00536012 0)
(1.0304 0.0160281 1.4883e-19)
(1.02426 0.0115594 0)
(1.02526 0.00857405 0)
(-0.0192101 1.81459 0)
(-0.0219687 1.79637 2.08107e-21)
(-0.020523 1.80636 1.19699e-20)
(-0.0266349 1.79461 0)
(-0.0238977 1.79892 1.54011e-20)
(-0.0245548 1.79681 -7.63981e-21)
(-0.026205 1.79436 0)
(0.565645 1.64003 0)
(0.600773 1.30465 9.9316e-19)
(0.528382 1.45079 0)
(0.596496 1.3202 -1.09984e-18)
(0.543085 1.34365 0)
(0.581843 1.32024 4.89835e-19)
(1.01749 2.69203 -3.27105e-21)
(0.942794 2.36796 -1.80168e-19)
(0.859172 2.09799 2.50032e-19)
(0.838015 2.32783 9.48615e-20)
(0.857609 2.49362 0)
(0.882486 2.50354 0)
(0.889856 2.339 0)
(0.90494 2.28537 -3.71202e-19)
(0.750347 2.47288 -3.33988e-21)
(0.829822 2.46964 -1.7446e-20)
(0.819465 2.44922 1.38233e-20)
(0.700492 2.36802 0)
(0.791312 2.34058 0)
(0.762063 2.36254 -1.97235e-19)
(0.803888 2.4687 0)
(0.603918 1.07341 0)
(0.48589 0.918316 4.68154e-20)
(0.5292 0.948745 2.10431e-21)
(0.512607 1.03201 0)
(0.517261 0.985387 -6.88012e-20)
(0.724803 0.874685 2.59284e-20)
(0.762694 1.00139 0)
(0.736804 0.974457 -8.52036e-20)
(0.626618 1.00423 0)
(0.608742 0.927399 0)
(1.14551 2.80173 8.2483e-20)
(1.12699 2.86654 1.48594e-19)
(0.912679 2.40618 -3.2702e-19)
(0.884018 2.37823 4.52359e-20)
(1.1049 2.76348 0)
(1.05531 2.73275 -5.45138e-20)
(1.06072 2.48916 -4.28338e-20)
(0.940544 2.20464 -2.57694e-20)
(0.454201 1.42264 0)
(0.457582 1.06498 1.09803e-19)
(0.540413 1.15732 0)
(0.839938 0.22005 0)
(0.810523 0.174096 0)
(0.772209 0.191574 0)
(0.829544 0.225244 -2.91857e-19)
(0.782276 0.227302 1.81007e-19)
(0.93294 0.0533693 -1.53748e-19)
(0.939547 0.101939 0)
(0.925955 0.107088 7.34434e-20)
(0.887604 0.0807119 3.02292e-19)
(0.886752 0.0558211 -1.85855e-19)
(1.16625 3.37519 -1.00213e-18)
(1.21332 3.29575 0)
(1.16662 3.40125 -1.98033e-18)
(0.652565 3.56319 1.69833e-18)
(0.875928 3.12703 4.00765e-19)
(0.482241 0.87245 1.91522e-19)
(0.440565 0.854087 0)
(0.341181 0.565138 -7.56888e-20)
(0.402872 0.69036 3.37255e-19)
(0.515503 0.543027 -1.02609e-19)
(0.499039 0.566193 1.16092e-19)
(0.620872 0.547889 2.48172e-19)
(0.637303 0.562432 0)
(0.594001 0.629533 0)
(0.559148 0.565075 0)
(0.911399 0.581591 -6.23304e-20)
(0.836302 0.516403 -1.67134e-19)
(0.859694 0.556439 7.02361e-20)
(0.904366 0.489371 -1.18745e-19)
(1.00583 0.461643 0)
(1.01806 0.544188 -9.95354e-23)
(0.83077 0.363588 -3.65269e-19)
(0.836313 0.351806 -4.1083e-19)
(0.81539 0.362095 2.86407e-19)
(0.798353 0.335611 -3.3002e-19)
(0.831123 0.296793 -2.45035e-19)
(0.794001 0.302668 3.00296e-19)
(1.03688 0.000353821 -1.56827e-19)
(1.03912 0.00118939 3.19573e-19)
(1.02752 -0.0066842 1.94774e-19)
(1.03282 -0.0038043 -2.33296e-19)
(1.03475 0.0117763 0)
(1.03725 0.0101293 -3.85409e-19)
(-0.243141 1.9125 3.09751e-20)
(-0.249521 1.87529 0)
(-0.337665 1.97472 -1.23043e-19)
(-0.338788 1.97274 1.33292e-19)
(-0.341998 1.90403 -1.31527e-19)
(-0.326747 1.90734 0)
(-0.0287843 1.81623 0)
(-0.0277087 1.80191 -8.57944e-21)
(-0.026182 1.7989 7.71666e-21)
(-0.0253713 1.80099 1.94663e-21)
(-0.0219631 1.81425 -1.52156e-20)
(-0.0222083 1.81646 9.54158e-21)
(0.50217 1.43042 3.62495e-19)
(0.505511 1.43347 -3.88747e-19)
(0.560735 1.32712 4.80495e-19)
(0.600776 1.39675 -2.1948e-20)
(0.631817 1.2874 0)
(0.579641 1.36095 5.72514e-19)
(0.595693 1.3633 -5.7068e-19)
(0.557053 1.30209 -4.70864e-19)
(0.554649 1.28166 0)
(0.547334 1.23557 0)
(0.793926 2.4684 4.96096e-21)
(0.739647 2.49194 4.7044e-19)
(0.799213 2.47757 -3.19451e-19)
(0.704709 2.49313 -1.01289e-19)
(0.661496 2.66289 -2.87625e-21)
(0.536844 2.68129 -8.44349e-20)
(0.951337 2.34072 -1.37284e-19)
(0.985155 2.37989 0)
(0.87006 2.10038 -1.63867e-19)
(1.02828 2.71396 0)
(1.01979 2.69171 0)
(0.618412 2.28418 2.66015e-19)
(1.04598 3.1717 5.05365e-19)
(0.920752 3.03808 -4.53648e-19)
(0.284951 0.981374 0)
(0.337626 0.851761 -1.38044e-19)
(0.483635 0.78833 -4.95596e-20)
(0.41089 2.05926 0)
(0.467156 2.78988 -2.79346e-19)
(0.434132 2.56231 0)
(0.63281 0.689184 -2.66364e-19)
(0.712376 0.670884 3.42301e-19)
(0.732603 0.61639 -3.33231e-19)
(0.611681 0.644255 -4.11123e-20)
(0.671042 0.59982 -1.70054e-19)
(1.01386 2.77932 -3.84097e-19)
(1.04145 2.84088 3.37951e-19)
(0.661149 2.20333 4.31372e-22)
(0.596764 1.72996 -3.28773e-20)
(0.722656 1.92739 1.77329e-19)
(0.997864 2.47367 -4.29199e-20)
(1.0037 2.49892 -2.40254e-19)
(0.688449 1.88229 -9.51687e-21)
(0.469642 1.33068 -1.15651e-19)
)
;

boundaryField
{
    wall-4
    {
        type            noSlip;
    }
    velocity-inlet-5
    {
        type            fixedValue;
        value           uniform (1 0 0);
    }
    velocity-inlet-6
    {
        type            fixedValue;
        value           uniform (0 3 0);
    }
    pressure-outlet-7
    {
        type            zeroGradient;
    }
    wall-8
    {
        type            noSlip;
    }
    frontAndBackPlanes
    {
        type            empty;
    }
}


// ************************************************************************* //
