/*--------------------------------*- C++ -*----------------------------------*\
| =========                 |                                                 |
| \\      /  F ield         | OpenFOAM: The Open Source CFD Toolbox           |
|  \\    /   O peration     | Version:  4.0                                   |
|   \\  /    A nd           | Web:      www.OpenFOAM.org                      |
|    \\/     M anipulation  |                                                 |
\*---------------------------------------------------------------------------*/
FoamFile
{
    version     2.0;
    format      ascii;
    class       volScalarField;
    location    "40";
    object      p;
}
// * * * * * * * * * * * * * * * * * * * * * * * * * * * * * * * * * * * * * //

dimensions      [0 2 -2 0 0 0 0];

internalField   nonuniform List<scalar> 
918
(
0.580525
1.23148
0.00546988
0.57988
-0.0092868
1.19852
-0.474346
0.739531
0.560678
-0.0693531
-0.00629253
0.55633
1.05918
0.826331
-1.10108
0.0133794
0.689423
-0.35464
0.559714
0.00334598
0.7761
0.567258
0.570289
0.560875
0.624602
0.805504
0.940271
0.0176085
0.00187032
-0.00200463
-0.00799992
-0.0325655
-0.0226582
1.08216
1.13326
1.15595
0.528921
0.355085
-0.337944
-0.406268
-0.399845
-0.512099
0.732611
0.733103
-0.153079
0.741652
0.749683
0.54785
0.560039
0.560937
0.562017
0.560971
0.562364
0.438723
-0.0740183
-0.105637
-0.049951
-0.0410819
0.0873841
-0.00487997
-0.0067829
-0.00386874
-0.00870303
0.479649
0.551969
0.549129
0.561382
0.570083
1.17103
1.14293
1.16908
1.08282
1.09929
1.03714
1.00979
0.846152
0.867911
0.812929
0.800411
-1.53914
-2.50158
-0.505137
-0.2509
-0.00522054
0.0196073
0.022894
0.680993
0.679262
0.69089
0.70219
1.10883
-0.351243
-0.467037
0.55984
0.558637
0.567022
0.567717
0.563731
0.562824
0.00301069
0.00118011
0.000117474
0.00180174
-0.00283141
0.765315
0.763055
0.561414
0.558432
0.577191
0.598119
0.589936
0.309809
0.628286
0.64075
0.629558
0.795378
0.790046
0.798472
0.913755
0.877868
0.977314
1.0004
0.0150333
0.00434986
0.00424418
-0.00944515
0.00271782
0.52485
0.517577
0.54391
0.532277
0.534725
0.270935
0.136051
0.440478
0.465465
-0.25117
-0.311303
-0.40807
-0.428371
-0.540253
0.6268
0.72302
0.721827
-0.172108
-0.096666
-0.227104
-0.0239446
-0.0838049
0.538248
0.545154
0.540203
0.555624
0.55012
0.552071
0.564283
0.561359
0.562917
0.501594
0.62541
0.36448
0.329497
-0.214135
-0.123858
-0.216475
-0.027819
-0.023212
0.102926
0.12767
0.0755784
0.0681108
-0.0161674
-0.0104397
-0.0118913
-0.00924394
-0.00651581
0.47272
0.461963
0.491966
0.499312
0.542107
0.543275
0.546569
0.545053
0.960461
0.982815
0.990484
0.964241
-3.50298
-6.30679
0.0782581
0.216806
0.00206934
0.000196541
0.00392856
-0.000498456
0.00408528
-0.00187877
0.0303707
0.0327058
0.0292946
0.0404043
0.667207
0.666862
1.0281
1.02924
1.0094
0.959917
0.547933
0.550055
0.555598
0.551454
-0.00448156
-0.000641941
-0.00209917
0.750691
0.758831
0.756852
0.272752
0.185662
0.358945
0.386943
0.656676
0.644299
0.654769
0.690735
0.728492
1.00781
1.02613
1.02431
1.03276
1.07675
1.09312
1.05855
0.504906
0.514548
0.509673
0.547106
0.54481
0.545755
0.541294
0.542754
0.540576
-0.0159067
-0.399585
0.514619
0.532998
0.514097
0.520003
0.706797
0.784309
0.703678
0.713844
0.711694
0.0417666
-0.0152927
0.285747
0.252224
0.414105
0.449543
0.429019
0.931744
0.892163
0.942252
0.915461
0.876755
0.90237
-0.351178
-1.86466
-0.97602
0.571693
0.383005
0.471666
0.0512353
0.0268616
0.0358865
1.02288
1.09992
0.681308
0.850155
0.85725
0.764869
0.794807
0.851795
0.779171
0.812623
0.845755
0.824959
0.583191
0.526739
0.537818
0.854548
0.911116
0.158717
0.10277
0.057983
0.146275
0.20509
0.177876
1.0625
0.967236
1.03919
0.558182
0.558882
0.0145651
0.0181896
0.563046
0.563091
0.00159628
0.00310121
0.453987
-0.810789
0.145385
0.551526
0.541719
0.558688
-0.0530257
0.393115
-0.00387903
0.087427
0.0293722
0.55441
0.490166
0.450749
0.0220108
0.00395215
0.00158624
-0.180125
0.555854
0.554165
0.558152
0.559125
0.559789
0.00856296
0.0120258
0.0108783
0.00433713
0.00806977
0.00530002
0.523162
0.540875
-0.135364
0.558291
0.560415
0.560234
0.553425
0.559092
0.557317
0.0099715
-0.0052081
-0.00959986
0.256705
0.380383
0.699934
0.793108
0.667756
0.440531
0.202038
0.599761
0.665016
0.568067
0.725536
0.716397
0.734855
0.210338
0.0616552
0.217858
0.158828
0.549395
0.548074
0.539989
0.537054
0.553542
0.551657
0.556212
0.553215
0.556164
0.557557
-0.0114636
-0.0345179
-0.0495039
-0.11341
0.349571
0.610567
0.28859
0.318954
0.180277
-0.00263871
-0.00390471
-0.00324871
-0.00867099
0.0364457
0.0146705
0.0795547
0.0818525
0.0491257
0.0231022
0.0283175
0.0182159
0.018449
0.5477
0.545899
0.552364
0.560918
0.499473
0.503256
0.469249
0.489282
0.474982
0.415778
0.450042
0.425562
0.0173853
0.0281832
0.0127892
0.0111804
0.0198116
0.0105188
0.0128679
0.0101013
0.0135062
0.00772687
0.00206879
0.00036966
-0.138996
-0.252572
1.01477
0.948688
0.159468
0.545048
0.551468
0.548254
0.553056
0.556186
0.55703
0.554775
0.551343
0.541387
0.543093
0.539619
0.540322
-0.0728269
-0.209548
-0.0364947
-0.10561
0.164865
0.648438
0.392358
0.331813
0.326319
0.548842
0.955812
0.749173
0.737817
0.758836
-0.315349
0.0812548
-0.248381
0.371247
0.193358
0.69767
0.747196
0.76927
0.717068
0.669145
-0.0859773
0.57665
-0.0283682
0.0187406
0.213835
0.101501
0.739142
0.700118
0.705175
0.723588
0.742741
0.705946
0.687854
0.683089
0.719413
0.723017
0.526041
0.288303
0.241665
0.202984
0.681898
0.565308
0.621475
0.532739
0.544401
0.54714
0.54574
0.527916
0.535324
0.530998
0.536984
0.540289
0.549265
0.549637
0.545037
0.54721
-0.016077
-0.0190366
0.00401552
-0.103263
-0.0941799
-0.153316
-0.0326321
0.10882
0.0712913
0.266897
0.372143
0.084515
-0.0309413
-0.00157983
0.0334835
0.210963
0.236153
0.111202
0.199702
0.1874
0.172282
0.273097
0.278804
0.0109325
0.00612673
0.00666517
0.00303991
0.0576852
0.129024
0.139007
0.0296507
0.0246774
-0.00375697
-0.00662742
0.0134955
0.0103255
0.0122284
0.0513586
-0.0290466
0.0076917
0.02531
0.0313645
0.0293702
0.0226979
0.540342
0.542367
0.542125
0.550085
0.567103
0.582795
0.54107
0.521163
0.512163
0.51513
0.488819
0.498877
0.494622
0.508219
0.528324
0.537362
0.535167
0.537793
0.520811
0.522357
0.509259
0.513022
0.488731
0.47044
0.458941
-0.0109104
0.0334978
0.0316449
-0.0111361
0.0189173
0.000269348
0.0254202
0.0430082
0.0271932
0.0240741
0.0160451
0.0131521
0.0146943
-0.0449835
0.0370466
-0.154105
-0.187269
-0.255865
0.9194
1.0393
0.84182
0.617625
0.632342
0.871086
0.957804
0.579548
0.765676
0.789341
0.600499
0.870364
0.549849
0.549458
0.54706
0.546539
0.547774
0.0169107
0.118094
0.126167
0.181426
0.296266
0.409505
0.33232
0.210818
0.34372
0.34749
0.643608
0.657737
0.609959
0.632234
0.631916
0.456463
0.534472
0.587928
0.542344
0.590307
0.612244
0.571744
0.602414
0.549719
0.505706
0.502942
0.451305
0.473312
0.450368
0.431829
0.539502
0.517471
0.527571
0.518321
0.537743
0.561693
0.558354
0.589374
0.600622
0.522078
0.479942
0.489934
0.518606
0.479982
0.494255
0.509901
0.24645
0.145358
0.231118
-0.0589644
0.0210698
0.0061733
-0.0409192
0.00466497
0.290249
-0.40653
-0.37999
-1.01243
0.516474
0.985857
0.691696
0.664439
0.739181
0.717918
0.72191
0.744879
0.75078
0.672435
0.690414
0.693845
0.653281
0.67709
0.700177
0.697517
0.54849
0.419894
0.41317
0.369788
0.24224
0.277559
0.480091
0.40195
0.327397
0.330095
0.492688
0.380076
0.447004
0.485877
0.417629
0.372335
0.577284
0.642289
0.631957
0.606374
0.524849
0.539251
0.563943
0.59979
0.626614
0.658763
0.536694
0.54251
0.543768
0.541296
0.538503
0.541432
0.541563
0.544097
0.544896
0.547827
0.546826
-0.00371819
0.00719767
-0.0057949
-0.0123395
0.0163711
0.0117377
0.0559537
0.0414297
0.0268799
0.0341027
0.00756942
0.00267796
0.008938
0.0178488
0.132522
0.145659
0.129415
0.0898018
0.279793
0.410465
0.481114
0.359088
0.251654
0.275015
0.298192
0.0223634
0.0502178
0.0354617
0.0776951
0.0692064
0.00503281
0.000517861
0.003529
0.00709853
0.0188937
-0.000344888
0.00230188
0.00751731
0.00145375
-0.00215176
-0.00165386
0.523356
0.51689
0.518328
0.512296
0.511111
0.525118
0.529348
0.53117
0.536495
0.538531
0.529006
0.534496
0.538097
0.024534
0.00616627
-0.00268256
0.0124998
0.0123355
0.0137094
0.00932223
0.145518
0.0768361
0.0822846
0.0350279
-0.0930537
-0.0357806
0.507852
0.504736
0.500022
0.738989
0.589417
0.50759
0.602756
0.708988
0.295433
0.494604
0.32773
0.910294
0.803337
0.949689
0.565454
0.261063
0.417089
0.46786
0.275181
0.347516
0.352796
0.240522
0.272248
0.305013
0.406474
0.282835
0.257353
0.0149708
0.202581
0.319837
0.300705
0.429146
0.491265
0.279809
0.1998
0.155689
0.635053
0.65381
0.672436
0.643182
0.667121
0.599255
0.587977
0.605749
0.614611
0.610942
-0.740237
-0.447811
-1.39179
-0.706245
-0.255887
0.546984
0.509885
0.789577
0.674619
0.737287
0.721714
0.679382
0.645075
0.659973
0.691154
0.38605
0.497697
0.472145
0.477411
0.377771
0.310101
0.612157
0.606008
0.642069
0.666149
0.63309
0.66594
0.534483
0.534109
0.533746
0.530141
0.528397
0.530618
0.0934676
0.0625635
0.0973045
0.0777353
0.055942
0.0445248
0.027159
0.0186759
0.0137586
0.0140819
0.0258697
0.0287859
0.186396
0.128308
0.052495
0.0820731
0.0207924
-0.0451723
-0.0638583
0.038006
0.130677
0.120894
0.427696
0.679703
0.500576
0.67011
0.509401
0.565377
0.490741
0.483841
0.510472
0.397962
0.477754
0.247869
-0.257187
-0.165184
0.804865
0.822319
0.604621
0.419859
0.190254
0.37835
0.573786
0.508743
0.547364
0.616426
0.607462
0.0314646
0.0972948
0.359859
0.587176
0.251803
0.244265
0.238627
0.413791
0.337429
)
;

boundaryField
{
    wall-4
    {
        type            zeroGradient;
    }
    velocity-inlet-5
    {
        type            zeroGradient;
    }
    velocity-inlet-6
    {
        type            zeroGradient;
    }
    pressure-outlet-7
    {
        type            fixedValue;
        value           uniform 0;
    }
    wall-8
    {
        type            zeroGradient;
    }
    frontAndBackPlanes
    {
        type            empty;
    }
}


// ************************************************************************* //
