/*--------------------------------*- C++ -*----------------------------------*\
| =========                 |                                                 |
| \\      /  F ield         | OpenFOAM: The Open Source CFD Toolbox           |
|  \\    /   O peration     | Version:  4.0                                   |
|   \\  /    A nd           | Web:      www.OpenFOAM.org                      |
|    \\/     M anipulation  |                                                 |
\*---------------------------------------------------------------------------*/
FoamFile
{
    version     2.0;
    format      ascii;
    class       volVectorField;
    location    "40";
    object      U;
}
// * * * * * * * * * * * * * * * * * * * * * * * * * * * * * * * * * * * * * //

dimensions      [0 1 -1 0 0 0 0];

internalField   nonuniform List<vector> 
918
(
(0.985163 -0.000502275 0)
(0.00501105 2.96625 0)
(-0.00090499 0.810537 0)
(0.979703 0.00214789 0)
(-0.0210162 2.0193 3.04492e-20)
(-0.00704176 2.94879 -2.56811e-18)
(0.825554 1.16533 4.17674e-19)
(0.2795 0.131961 -1.64283e-20)
(0.999909 -0.000281135 0)
(0.0604891 0.812677 0)
(0.0181778 0.62075 0)
(0.734828 -0.0149112 0)
(0.0110912 2.93038 0)
(0.00241474 2.79484 0)
(-0.0175265 3.15628 7.56034e-19)
(-0.00682218 1.86766 -1.54785e-20)
(0.345661 0.0352675 1.07669e-18)
(0.190417 1.17591 2.89143e-19)
(0.962772 0.00501838 0)
(0.00330968 0.604067 0)
(0.0623041 0.176743 -7.7811e-19)
(1.00198 -0.00498094 0)
(1.00022 -0.0097914 0)
(0.975727 -0.00644075 0)
(0.585509 -0.0372687 0)
(0.0157238 2.63926 0)
(-0.0149373 2.91004 9.51897e-19)
(-0.000525603 0.885585 0)
(0.0106679 1.09741 0)
(-0.00325699 0.861928 0)
(-0.0193406 2.60523 0)
(-0.0013556 2.08179 -2.42983e-20)
(-0.0146253 1.83493 0)
(-0.0206164 2.9876 -9.26076e-23)
(-0.0166926 3.0053 1.99603e-18)
(0.0021021 3.00019 0)
(0.870719 -0.0093941 0)
(0.403839 0.937552 1.93982e-19)
(0.804371 1.18301 -4.51167e-19)
(0.950156 1.02095 5.01318e-19)
(0.675109 1.27613 -9.67315e-20)
(0.673225 1.26326 5.57121e-19)
(0.319931 0.212111 1.60272e-20)
(0.294195 0.102337 0)
(1.12605 0.548591 0)
(0.285449 0.204024 7.32447e-20)
(0.249443 0.134167 -7.60069e-20)
(0.919769 -0.00745473 0)
(1.00027 0.000150135 0)
(0.99991 0.000333167 0)
(1.00363 -0.00777019 0)
(1.00096 -0.000931818 0)
(1.00017 2.94119e-05 0)
(0.0780012 1.81162 -8.39211e-19)
(0.0276412 0.99352 0)
(0.0916611 0.876177 0)
(0.0123879 0.943251 0)
(0.0338896 0.755342 0)
(0.022139 1.99643 0)
(0.0188915 0.827441 0)
(0.014107 0.650061 0)
(0.0120827 0.807113 0)
(-0.000597616 0.598584 0)
(0.83821 -0.0157291 0)
(0.84742 0.0286731 0)
(0.767729 -0.00373843 0)
(0.81808 0.0388629 0)
(0.703054 -0.0186807 0)
(0.0146925 3.0004 9.53367e-19)
(0.0115081 3.00797 0)
(0.00612421 3.00279 0)
(0.0135366 2.99733 1.08386e-23)
(0.00798243 2.95848 -1.41694e-18)
(0.0144896 2.98207 0)
(0.0108259 2.90361 0)
(0.0246859 2.93078 2.19977e-24)
(0.00451965 2.82481 0)
(0.0304824 2.91622 0)
(-0.00549528 2.74491 0)
(0.308405 3.5531 0)
(-0.131865 3.63459 0)
(0.139712 3.24671 -7.03576e-19)
(-0.0124946 2.98201 0)
(-0.00531987 2.05063 0)
(-0.0124498 2.13766 1.52656e-20)
(0.00373753 1.89194 -2.38197e-20)
(0.443585 0.143236 -3.7252e-19)
(0.344981 0.0190883 -3.59045e-19)
(0.425801 0.161272 -1.12193e-18)
(0.331373 0.0537256 -7.40383e-19)
(0.22187 0.959583 0)
(0.272689 1.32037 -3.50976e-19)
(0.372735 1.26125 5.88312e-19)
(0.987473 0.00855005 0)
(0.941935 0.00585376 0)
(1.0003 0.000578228 0)
(1.00286 0.0093059 0)
(1.00302 0.00845927 -2.86319e-18)
(0.991913 0.00970076 2.1622e-18)
(-0.0157344 0.801727 0)
(-0.00297625 0.600506 0)
(-0.00899678 0.918429 0)
(-0.00339481 0.802422 0)
(-0.0152704 0.597489 0)
(0.0991679 0.180809 2.40521e-19)
(0.156239 0.15756 0)
(0.993539 -0.00838121 0)
(0.954422 -0.00651721 0)
(0.767305 0.0460529 0)
(0.702987 0.056678 0)
(0.663566 -0.0305709 0)
(0.961146 -0.00917886 0)
(0.61923 0.0760619 0)
(0.445873 -0.0119091 1.5848e-18)
(-0.0369349 2.86315 7.22394e-19)
(0.0419905 2.90916 0)
(0.0542931 2.88517 0)
(-0.00459067 2.69928 0)
(-0.0132728 2.98522 9.04065e-19)
(-0.0179825 2.8952 0)
(-0.01537 2.9881 -2.7975e-18)
(-0.0133721 2.92519 9.56641e-19)
(0.0400319 1.32714 0)
(0.0608185 1.38174 0)
(-0.00334414 2.10859 7.77051e-23)
(-0.00231799 2.06892 0)
(-0.0203948 1.84094 0)
(0.937996 -0.00768309 0)
(0.856373 -0.00962316 0)
(0.863387 0.00629279 0)
(0.949191 -0.00803143 0)
(0.883667 -0.00812873 0)
(0.516118 1.13141 -2.44263e-19)
(0.565646 1.18323 0)
(0.36755 0.881383 3.55986e-20)
(0.309764 0.740351 0)
(0.909956 1.05985 -1.3596e-19)
(1.01932 0.861749 2.69402e-19)
(0.366665 1.37128 0)
(0.53067 1.33874 0)
(0.543521 1.29247 0)
(0.115467 0.180103 -3.0911e-19)
(0.353429 0.2033 0)
(0.318796 0.0954568 2.0949e-19)
(0.990114 0.917387 0)
(1.05461 0.766637 0)
(1.07888 0.706867 -1.99515e-19)
(1.10712 0.60934 0)
(1.15475 0.39356 5.45175e-20)
(0.957517 -0.00881471 0)
(0.962393 -0.0101102 0)
(0.901503 -0.00800281 0)
(0.984172 -0.00917528 0)
(0.97465 -0.0093824 0)
(0.937059 -0.0063578 0)
(1.00019 0.002337 0)
(1.0009 0.00140073 0)
(0.999911 0.000855218 0)
(0.0345848 2.06512 4.62473e-19)
(0.121484 1.75448 0)
(0.0158242 2.1813 7.24573e-19)
(0.0517561 1.8658 -6.13718e-19)
(0.106331 1.18217 -2.36174e-19)
(0.0468007 1.06821 0)
(0.141547 1.02827 0)
(0.00689258 0.89662 0)
(0.0185378 0.709733 0)
(-0.00500188 2.23256 -1.33009e-21)
(0.0272369 2.00147 0)
(-0.00713789 2.23411 -6.25793e-20)
(0.0258092 1.99889 1.14283e-19)
(0.00384499 0.87076 0)
(0.0112623 0.850001 0)
(0.0117497 0.674434 0)
(-0.00436377 0.802704 0)
(0.00198684 0.587727 0)
(0.935602 0.00892249 0)
(0.84556 -0.0151745 0)
(0.925573 -0.000223021 0)
(0.840257 -0.0127007 0)
(0.8121 0.00116131 0)
(0.901598 0.0199741 0)
(0.877984 0.0240414 0)
(0.788789 -0.000784953 0)
(0.00583216 3.06492 -8.94755e-21)
(0.0166301 3.05778 0)
(0.0147162 2.96906 0)
(0.00867925 2.87624 0)
(0.925527 3.96958 0)
(1.24026 3.302 9.28801e-19)
(0.0702726 3.07403 0)
(-0.0281982 2.90513 0)
(0.047075 1.44108 0)
(0.00234085 1.77053 0)
(0.0377814 1.62887 0)
(-0.0286623 2.56267 6.05069e-22)
(-0.0162873 2.2557 0)
(-0.0239184 2.40593 0)
(0.017353 1.92504 -2.55948e-21)
(-0.00497154 2.21414 2.76388e-20)
(-0.0142031 2.17444 2.42707e-20)
(0.00572788 1.90229 0)
(0.471156 0.120358 5.5929e-19)
(0.370612 0.0050108 -5.49335e-19)
(0.259918 1.575 0)
(0.269857 0.734484 -3.22095e-19)
(0.177628 1.66049 -1.08166e-18)
(0.227267 1.20135 1.08434e-18)
(0.902229 0.00650819 0)
(0.967498 0.0110454 0)
(0.974622 0.010787 0)
(0.923437 0.00650151 0)
(-0.0100199 0.791347 0)
(-0.0106421 0.793549 0)
(-0.0121925 0.595542 0)
(0.245987 0.199714 6.75306e-19)
(0.205481 0.187495 -8.00164e-19)
(0.211102 0.146025 0)
(1.08362 0.0814885 3.04771e-20)
(1.06644 0.0364774 0)
(1.00338 0.0381534 0)
(0.899587 -0.00739236 0)
(0.501621 0.0998372 0)
(0.544376 0.0834764 -2.53428e-18)
(0.401615 0.00133818 9.49222e-19)
(0.00912964 2.98151 7.69e-19)
(-0.0321799 2.86639 4.82891e-20)
(0.00363218 3.05024 -1.89018e-20)
(0.0201514 3.04339 6.71719e-19)
(-0.015016 2.99657 3.13736e-20)
(-0.0129398 2.94944 -1.26199e-22)
(-0.0172632 3.01197 -5.79114e-19)
(0.0148217 3.02394 4.19051e-19)
(0.00734114 3.03678 -6.64864e-19)
(0.932669 -0.00176487 0)
(0.93858 -0.00363638 0)
(0.844407 -0.00923615 0)
(0.956716 0.0117361 0)
(0.943019 0.0129966 0)
(0.881755 0.00606971 0)
(0.918052 0.0164223 0)
(0.926506 0.0146834 0)
(0.838633 0.00370973 0)
(0.719801 1.41063 2.48868e-20)
(0.753501 1.51993 0)
(0.186832 0.324232 7.39545e-20)
(0.218492 0.657438 5.97831e-19)
(0.259296 0.718391 -3.47764e-19)
(0.265039 0.533121 6.91692e-19)
(0.336523 0.789164 1.62425e-18)
(0.133678 0.221245 3.81055e-19)
(0.399814 0.180929 7.85669e-19)
(0.379954 0.195655 2.04657e-19)
(0.329089 0.0758811 3.9075e-19)
(1.14584 0.451932 1.93647e-20)
(1.16326 0.248103 1.36845e-20)
(0.00677991 2.22985 2.85954e-19)
(0.0477257 1.93334 0)
(0.964403 0.0282998 0)
(0.93878 0.0131199 0)
(0.863099 -0.0186 0)
(0.0111705 3.07426 0)
(0.0197434 2.94417 1.23791e-18)
(0.0164513 2.9563 0)
(0.006366 2.85058 -1.22775e-18)
(0.00633687 3.09169 3.01094e-19)
(0.00719194 3.08252 0)
(0.786697 1.82273 -1.5623e-19)
(1.24803 2.50103 3.9611e-19)
(0.768898 1.96256 -1.22762e-18)
(0.0200541 2.98141 -6.6834e-19)
(0.0358789 3.00147 0)
(-0.0339167 2.87812 0)
(-0.0077405 2.20909 -1.37443e-20)
(-0.00426474 2.2322 -5.24844e-20)
(0.020535 1.958 -1.05231e-20)
(0.275592 1.38246 1.04845e-18)
(0.228251 0.522309 -7.19027e-19)
(0.062922 1.98865 7.98697e-19)
(0.136073 1.8766 -9.45444e-19)
(0.180574 1.49519 9.18976e-20)
(0.00454305 3.11793 -1.78384e-18)
(0.0157793 3.11823 1.9148e-18)
(-0.00910078 2.98066 8.37193e-19)
(-0.00333727 2.9773 -7.96158e-19)
(-0.0214713 2.88146 -8.52658e-19)
(0.00866114 3.09862 -2.24099e-18)
(0.00187267 3.10681 2.19984e-18)
(0.27358 0.68093 0)
(0.237867 0.671236 -1.23162e-18)
(0.0955031 0.222154 5.45989e-19)
(0.350806 0.915095 1.13173e-18)
(0.189088 0.266122 -1.74507e-18)
(1.16331 0.168243 7.89245e-20)
(1.16535 0.301936 0)
(1.15103 0.117207 -2.57426e-20)
(-0.00270117 2.24695 -1.98397e-21)
(0.00118021 2.23797 0)
(0.0337482 1.96873 0)
(0.33965 1.29083 -3.77446e-19)
(0.368887 1.12734 -8.15126e-19)
(0.202598 0.364763 1.45227e-18)
(1.00587 -0.0108605 0)
(1.00766 -0.00765367 5.28536e-19)
(0.0339598 1.30332 0)
(0.00366886 1.25748 0)
(1.00221 0.00350471 1.80199e-21)
(1.00366 0.00945174 1.07852e-18)
(-0.0221438 2.5462 -7.6628e-22)
(-0.0278933 2.58701 0)
(0.0360962 3.17874 4.50564e-19)
(0.395296 3.49165 0)
(1.15022 0.6493 -7.74042e-20)
(1.01294 0.0130515 -2.15054e-21)
(1.02127 -0.0104073 0)
(1.00169 0.00010723 7.43826e-23)
(0.100481 1.35686 0)
(0.14698 2.5761 0)
(0.02813 1.2915 0)
(0.00210496 2.63172 6.26724e-20)
(-0.0235866 2.5892 3.08207e-20)
(1.00151 0.0286035 2.44052e-21)
(1.06148 0.00336206 0)
(1.09433 0.0226848 0)
(-0.000724691 1.79584 0)
(-0.027661 2.58854 0)
(0.0058866 1.28261 0)
(0.293381 1.47023 -1.39863e-19)
(1.01126 -0.00965603 0)
(1.00939 -0.0149361 0)
(1.00236 0.000722727 6.75275e-19)
(1.00548 -0.00482401 -7.93799e-19)
(1.00119 -0.000992564 0)
(0.0124761 1.51427 0)
(0.0323577 1.38317 0)
(0.0382672 1.46674 0)
(0.0153355 1.27043 0)
(0.0149068 1.22434 0)
(0.0118366 1.20426 0)
(1.03455 -0.00643383 0)
(1.02052 0.0156962 -9.13716e-22)
(0.798085 1.26529 2.29228e-19)
(1.00224 0.000273406 -6.73072e-19)
(1.00406 0.00524839 7.8738e-19)
(1.00117 0.00206145 0)
(1.01281 0.0102685 6.69698e-19)
(1.00802 0.00829221 -8.10893e-19)
(1.00857 0.0146804 0)
(-0.0297227 2.61634 0)
(-0.0297067 2.59615 -6.60448e-21)
(-0.030104 2.60918 6.11262e-21)
(1.22596 0.254686 6.59274e-19)
(1.15598 0.0833519 0)
(0.0440264 3.07763 -9.83085e-19)
(0.0656104 2.85406 -7.14883e-20)
(0.142423 3.19323 1.49851e-18)
(0.137418 3.22204 -2.2553e-19)
(0.135846 3.2345 0)
(0.0196564 3.13747 2.55337e-19)
(0.0765469 3.16064 9.70354e-19)
(0.0693903 3.18643 -4.80863e-19)
(0.0224007 3.12972 0)
(0.643814 0.291205 0)
(0.567858 0.343694 0)
(1.11658 0.684899 1.93e-19)
(1.11236 0.812672 -1.96436e-19)
(1.17857 0.569051 0)
(1.20935 0.504951 0)
(1.01615 0.0132869 -1.24869e-18)
(1.01498 0.0142563 1.56745e-18)
(1.02521 -0.00992486 0)
(1.02327 -0.0119243 0)
(1.00644 0.0025532 0)
(1.01043 0.0036919 0)
(1.00461 0.00181313 0)
(1.00977 0.00616049 0)
(1.00785 0.00596149 0)
(1.00451 0.00466354 0)
(0.0884837 1.3532 0)
(0.0835873 1.32647 0)
(0.121657 1.39112 0)
(0.134385 1.4014 0)
(0.146942 2.60031 0)
(0.186992 2.66725 -4.51966e-19)
(0.102201 2.65766 0)
(0.0877446 2.66147 2.25213e-19)
(0.0412644 2.68475 -1.97828e-19)
(0.0275592 1.312 0)
(0.0174815 1.24544 0)
(0.0255922 1.3221 0)
(0.0270718 1.26223 0)
(0.0030129 1.98404 -2.52402e-20)
(-0.022055 2.61715 1.51903e-20)
(-0.00962028 2.67471 5.19745e-20)
(-0.0185247 2.69158 0)
(-0.0255291 2.62337 -7.00204e-20)
(-0.0249794 2.61781 -3.0475e-20)
(0.0123329 1.98363 2.14731e-20)
(-0.011573 2.40941 -2.03826e-20)
(-0.0149996 2.42867 -5.89334e-20)
(1.01123 0.0365232 1.27233e-18)
(1.00729 0.0162878 -1.57106e-18)
(1.00268 0.0428929 -1.27282e-18)
(0.981274 0.0222315 1.62163e-18)
(1.0628 0.00721158 0)
(1.04835 -0.00876114 0)
(1.09173 0.0325718 0)
(1.0725 0.0115528 0)
(1.0703 -0.000794714 0)
(1.13689 0.079307 0)
(1.10846 0.0419663 0)
(1.11142 0.0300669 0)
(-0.0197131 2.44193 -3.07689e-21)
(-0.0172299 2.01718 0)
(-0.0137455 2.22822 0)
(-0.0275681 2.61001 5.54194e-21)
(-0.023564 2.61898 -5.56675e-22)
(-0.00384476 1.57767 1.3408e-20)
(0.0130474 1.53477 -1.35164e-20)
(0.00842999 1.38965 0)
(0.0185809 1.403 0)
(0.0200474 1.40073 0)
(-0.00669111 1.28882 0)
(0.00621133 1.21574 0)
(0.378739 1.48523 2.20748e-19)
(0.41765 1.48984 1.27288e-19)
(0.596553 2.44668 -2.44896e-19)
(0.402181 2.54165 7.24124e-19)
(0.351434 2.06563 8.12476e-20)
(1.02096 -0.00820859 0)
(1.01545 -0.00980075 0)
(1.01489 -0.0155307 0)
(1.00745 -0.00119578 0)
(1.00492 -0.000961221 0)
(1.00776 -0.00476567 0)
(1.00924 -0.00371746 0)
(1.01416 -0.00448726 0)
(1.02124 0.016057 1.2228e-18)
(1.01804 0.0157312 -1.56739e-18)
(1.02168 0.0180005 -1.23136e-18)
(1.01958 0.0166928 1.54213e-18)
(0.764828 1.31424 0)
(0.700309 1.36676 2.0996e-19)
(0.874116 1.21064 6.52844e-20)
(0.916976 1.16311 -8.68262e-20)
(1.15672 2.60886 3.26282e-19)
(0.80528 0.109106 6.19648e-19)
(1.15891 0.103335 0)
(1.2042 0.185481 -5.29585e-19)
(1.1877 0.149184 -2.23906e-20)
(1.00382 0.14585 0)
(0.136426 2.96086 5.78815e-19)
(0.113632 2.86671 -1.24534e-18)
(0.023915 2.3725 8.40275e-19)
(0.0911727 -0.0218567 -3.76387e-19)
(0.340265 3.42077 -1.94519e-19)
(0.194857 3.31324 0)
(0.23751 3.35536 2.53329e-19)
(0.245681 3.03424 -1.89603e-18)
(0.340097 3.19344 0)
(0.00587921 3.12101 4.93354e-20)
(0.0166488 3.12962 -5.78695e-19)
(0.0145016 3.12568 8.51728e-19)
(0.0352632 3.13996 0)
(0.0336776 3.15061 0)
(1.21593 2.60814 0)
(0.539857 0.836056 -5.50114e-19)
(1.03831 0.987989 2.12262e-20)
(0.975021 1.06439 0)
(0.826659 0.967251 -1.25446e-19)
(1.06246 0.879609 2.87087e-20)
(0.365255 0.393121 -9.69163e-19)
(0.688658 0.318155 -2.17281e-20)
(0.651572 0.23231 4.44318e-19)
(0.587375 0.374149 3.28581e-20)
(0.502116 0.341707 -1.32333e-18)
(0.660157 0.334951 0)
(0.703739 0.419925 7.54342e-19)
(0.711756 0.420045 0)
(0.622505 0.364187 0)
(0.590652 0.287076 0)
(0.80181 0.615182 4.48083e-19)
(1.22522 0.276922 -5.57244e-19)
(1.22131 0.412724 0)
(1.23171 0.353881 0)
(0.738501 0.186496 6.59269e-19)
(0.849044 0.535435 -4.11188e-19)
(0.746462 0.507479 7.28515e-19)
(0.950814 0.423573 -8.03118e-19)
(1.01969 0.0147166 8.40675e-19)
(1.01784 0.0142132 -8.45594e-19)
(1.01594 0.0155677 0)
(1.03596 -0.00596892 0)
(1.0296 -0.00861184 -7.92867e-19)
(1.02756 -0.0121534 7.85063e-19)
(1.02504 0.00984398 0)
(1.02364 0.0134877 0)
(1.01142 0.00406735 0)
(1.01428 0.00900832 0)
(1.01512 0.00394164 0)
(1.01423 0.00275976 0)
(0.0588503 1.33788 0)
(0.0632016 1.29636 0)
(0.144564 1.36545 -2.51652e-20)
(0.269306 1.46708 7.05897e-20)
(0.162492 1.43868 1.46063e-19)
(0.193126 1.44604 -2.39627e-19)
(0.165624 1.38855 0)
(0.132139 1.59277 -1.07182e-19)
(0.116643 1.56479 0)
(0.349863 2.01848 -1.18101e-19)
(0.346263 2.35014 6.5545e-19)
(0.18738 1.44968 9.34639e-20)
(0.261806 1.38118 9.26675e-21)
(0.197773 1.36922 -7.50379e-21)
(0.273093 1.32317 -1.33815e-19)
(0.240906 1.57639 0)
(0.261843 1.61632 1.36648e-19)
(0.0349724 2.26703 -4.50834e-20)
(0.0434126 2.67399 0)
(0.0676199 2.40472 1.69985e-19)
(0.0626666 2.42621 0)
(0.071115 2.67472 -2.49373e-19)
(0.0511475 2.7036 0)
(0.0307032 1.40465 -6.82121e-21)
(0.0381927 1.45758 0)
(0.032155 1.37507 0)
(0.0276316 1.37563 7.70558e-21)
(0.000721439 2.65966 -1.84785e-20)
(0.0298372 2.70329 2.27549e-19)
(0.0118179 2.72897 1.58169e-21)
(0.00375505 1.83194 2.29109e-20)
(-0.00305763 1.67661 1.00442e-20)
(0.0282174 1.29237 0)
(0.0196162 1.22466 0)
(0.0501107 1.56874 2.16519e-20)
(0.0309061 1.44183 1.67248e-20)
(0.0397752 1.50724 -2.05685e-20)
(0.0417534 1.59323 0)
(-0.0328229 2.28593 3.09704e-20)
(-0.039285 2.55849 -1.40239e-20)
(-0.015611 2.45759 -4.7168e-21)
(-0.00659165 1.85044 -2.77856e-20)
(-0.0282884 2.50857 -1.04075e-20)
(-0.0240083 2.45203 4.76039e-20)
(1.01966 0.0207518 -8.35838e-19)
(1.01587 0.026304 8.39038e-19)
(1.01504 0.0162643 0)
(1.01142 0.068377 1.17931e-18)
(0.990943 0.0570499 -1.32183e-18)
(0.951282 0.0420639 1.47931e-18)
(1.01405 0.105189 -1.57305e-19)
(1.0422 -0.00601877 0)
(1.05029 -0.00186742 7.57875e-19)
(1.03856 -0.0100377 -7.59147e-19)
(1.06948 0.040723 -4.52241e-20)
(1.06322 0.0224226 3.88918e-19)
(1.06311 0.0536967 0)
(1.05163 0.0483145 -1.39822e-19)
(1.03285 0.0409915 0)
(1.02605 0.036985 0)
(1.02784 0.0128108 0)
(1.02428 0.0156374 0)
(1.03982 0.0309268 2.87776e-19)
(1.03932 0.0260434 -6.35125e-19)
(1.0503 0.0323854 -3.0526e-19)
(1.04866 0.0321627 -3.3588e-19)
(1.06993 0.062736 6.58369e-19)
(1.09428 0.0501797 0)
(1.1022 0.0934736 0)
(-0.0315766 2.28969 1.49914e-20)
(-0.0216042 2.0263 -4.12984e-21)
(-0.023715 2.02886 0)
(-0.0295068 2.454 -1.492e-20)
(-0.0170185 2.41046 7.09753e-21)
(-0.0352674 2.48816 8.9388e-22)
(-0.0230182 2.62897 2.55448e-20)
(-0.0303083 2.57064 -2.78002e-21)
(-0.0242431 2.52394 9.19111e-21)
(-0.0212601 2.62254 -1.14659e-20)
(-0.0256123 2.62419 1.53704e-20)
(-0.0145051 1.48538 -2.05015e-22)
(0.0049649 1.61928 1.46567e-20)
(0.36664 1.42706 -8.73255e-20)
(0.364969 1.36896 6.6237e-20)
(0.646201 1.41446 -2.02973e-19)
(0.515209 1.48008 -1.23926e-19)
(0.568499 1.45061 0)
(0.592258 2.4225 2.17266e-19)
(0.659951 2.41525 3.45336e-19)
(0.410676 2.51566 8.41187e-20)
(0.403929 2.5433 -6.56273e-19)
(0.511857 2.48828 6.4015e-19)
(0.551698 2.46042 0)
(0.488782 2.5158 -5.77058e-19)
(0.248982 2.59104 1.20988e-18)
(0.353807 2.56418 -8.17942e-20)
(0.2848 2.65279 -1.65783e-18)
(0.943846 2.37962 7.46233e-19)
(0.835943 2.38176 0)
(1.01097 0.000408783 2.74095e-20)
(1.01523 -0.00550491 -2.22532e-20)
(1.01763 -0.00364127 -4.06575e-19)
(1.0149 -0.00096741 4.08383e-19)
(1.01232 0.00103087 0)
(0.634107 1.28217 0)
(0.653141 1.18012 0)
(0.758427 1.08914 0)
(0.645874 1.14358 0)
(1.18628 2.62334 5.84826e-20)
(1.07419 2.36787 0)
(0.838362 2.18987 4.04455e-21)
(0.825195 2.4486 0)
(0.922254 2.53989 -4.47429e-19)
(0.957519 2.49596 2.97831e-19)
(0.815416 0.163217 0)
(0.780465 0.134959 1.69117e-19)
(0.924315 0.140443 9.83731e-19)
(0.839973 0.141929 -3.6798e-19)
(0.813085 0.0814325 -1.1316e-18)
(1.0769 0.226651 -9.58574e-19)
(0.995292 0.28465 -1.54462e-20)
(0.924844 0.283763 9.13861e-19)
(1.00268 0.216236 7.6461e-19)
(0.953307 0.184186 -1.30965e-18)
(0.91748 0.186375 1.63738e-19)
(0.952337 0.247142 -3.5125e-19)
(0.930829 0.210182 0)
(0.992253 0.180088 6.46337e-19)
(1.04277 0.180581 0)
(1.04125 0.206572 0)
(1.10625 0.115211 3.07483e-19)
(1.06679 0.169186 -1.40955e-20)
(1.07156 0.227883 -1.67943e-19)
(1.10343 0.196321 0)
(1.02278 0.0442912 6.48261e-19)
(1.04109 0.0569466 8.09695e-19)
(1.03431 0.0430187 -6.43177e-19)
(1.04245 0.0634069 -5.42584e-19)
(1.0192 0.0711306 -8.29367e-19)
(0.98793 0.152626 0)
(0.998466 0.101426 0)
(0.967512 0.0645992 -5.26845e-19)
(0.917459 0.0875379 2.06935e-19)
(1.03766 0.101256 7.50351e-19)
(1.06754 0.118542 -8.87396e-19)
(1.07034 0.149904 7.92018e-19)
(1.02914 0.139331 0)
(1.07351 0.106423 0)
(1.05454 0.0878884 -3.61524e-19)
(1.04432 0.0934126 -6.14141e-19)
(0.579019 1.07591 1.49144e-19)
(0.613039 1.4118 -5.08035e-20)
(1.15699 2.74137 -2.40442e-19)
(1.22378 3.08203 4.12956e-21)
(1.24903 2.72274 -1.62449e-19)
(1.27924 2.70656 -1.65689e-20)
(1.20716 2.34625 -1.01146e-20)
(1.2109 2.98601 -1.03978e-19)
(1.23013 2.95122 2.51429e-19)
(1.21488 3.23548 -1.39315e-19)
(1.37576 2.96726 1.9268e-19)
(1.3664 2.88529 0)
(0.544726 0.844005 -5.15127e-20)
(0.13651 1.2543 5.89045e-19)
(0.533148 0.447797 6.25964e-19)
(0.371264 0.199294 6.90787e-19)
(0.526707 0.375568 7.47162e-19)
(0.546436 0.473002 -1.20026e-18)
(0.547615 0.474354 9.80077e-19)
(0.495927 0.396611 -3.77861e-19)
(0.417491 0.328701 8.5664e-19)
(0.742286 0.247175 -3.77273e-19)
(0.708347 0.277688 0)
(0.688767 0.200956 9.28993e-21)
(0.730724 0.509631 3.96967e-19)
(0.702248 0.481113 -1.44727e-18)
(0.615164 0.468872 1.53079e-20)
(0.625484 0.458927 0)
(0.675948 0.730859 4.17469e-19)
(0.828015 0.77278 4.30098e-19)
(0.751921 0.854106 -5.02232e-19)
(0.870408 0.806895 -1.72393e-19)
(0.901738 0.850931 -4.39803e-20)
(0.90956 0.851358 4.50331e-20)
(0.844422 0.644604 -7.43828e-19)
(0.922668 0.702867 1.60175e-19)
(0.977865 0.71701 0)
(0.969027 0.692858 -2.20471e-19)
(1.02356 0.32137 2.32313e-19)
(1.14034 0.291007 3.23393e-19)
(1.06414 0.261179 3.92079e-19)
(1.01169 0.355168 -4.66234e-19)
(1.05526 0.41997 0)
(1.1074 0.404075 0)
(0.914344 0.352899 6.3217e-21)
(0.841393 0.285073 0)
(0.875092 0.279706 4.29529e-19)
(0.907232 0.289382 -4.49053e-21)
(0.94367 0.426388 2.24057e-18)
(0.900615 0.487196 5.79692e-19)
(0.904226 0.45024 -6.13953e-19)
(0.822001 0.433571 6.57722e-19)
(0.804885 0.428851 3.93993e-19)
(0.775468 0.4137 -3.87177e-19)
(1.0273 -0.00048935 6.77441e-19)
(1.02002 -0.00013636 0)
(1.01849 0.000791667 4.41337e-19)
(1.0215 -0.00189496 -9.99801e-19)
(1.02228 0.00424988 4.85854e-19)
(1.02043 0.0110976 -1.01755e-18)
(1.0214 0.0104958 0)
(1.0207 0.0107667 -2.11976e-19)
(1.016 0.00761928 5.31795e-19)
(1.01674 0.0103869 -2.65322e-19)
(1.01744 0.00972923 1.95424e-19)
(0.0320307 1.3123 0)
(0.0348105 1.34731 0)
(0.041669 1.31551 0)
(0.0408084 1.27362 0)
(0.0705998 1.37513 2.74997e-20)
(0.0766023 1.3481 -1.48169e-21)
(0.112484 1.50488 -3.2507e-20)
(0.0939458 1.35566 1.22393e-20)
(0.0349214 1.44654 -4.26002e-20)
(0.0385209 1.43915 3.32825e-20)
(0.0618797 1.3591 -8.04075e-21)
(0.0547591 1.36069 -6.10603e-21)
(0.0462196 1.33672 -1.13004e-21)
(0.0396634 1.35768 -4.17821e-21)
(0.10906 2.37474 -1.87975e-19)
(0.0975784 2.4214 0)
(0.173017 2.04971 1.22334e-19)
(0.112519 1.71117 5.53592e-20)
(0.231098 2.04475 -1.0043e-19)
(0.206537 2.43801 0)
(0.266488 2.38926 -6.39374e-19)
(0.304889 2.38716 4.53552e-19)
(0.232413 2.00475 -2.78908e-19)
(0.155747 2.16622 1.83313e-19)
(0.145648 2.27848 0)
(0.0207543 1.87325 -4.88538e-20)
(-0.0012692 2.40344 -1.02327e-19)
(0.00567531 2.15529 0)
(0.0134034 2.46309 -1.40407e-20)
(0.0276242 2.30709 3.61535e-20)
(0.0225743 1.39018 5.12174e-22)
(0.0180366 1.37581 -5.20517e-21)
(0.0187351 1.37966 -1.7706e-21)
(0.0246114 1.37776 5.28236e-21)
(0.0296572 1.40876 0)
(0.0146717 1.36157 0)
(0.00112191 1.27943 1.99008e-21)
(0.00941959 1.34866 -1.7024e-21)
(0.0135817 1.35153 0)
(0.0103769 1.28119 -1.57294e-21)
(0.00838601 1.20614 1.39106e-21)
(1.04021 0.0110538 0)
(1.04626 0.00735302 -7.10721e-20)
(1.0386 0.0205961 -5.12156e-19)
(1.04799 0.0195706 0)
(1.05159 0.0193609 0)
(1.03634 0.0110391 -6.63729e-21)
(1.03094 0.0109431 8.21987e-19)
(1.03188 0.0159048 9.96831e-19)
(1.02589 0.0199257 0)
(1.02315 0.0203179 0)
(1.03522 0.0242662 5.1094e-19)
(1.02629 0.025692 0)
(1.02453 0.0257865 0)
(-0.0288079 2.02754 0)
(0.00613294 1.64759 -5.78632e-21)
(-0.00408234 1.76201 -1.93281e-20)
(0.00131331 1.36201 0)
(-0.0108943 1.55409 8.62714e-21)
(-0.00147513 1.4482 -5.82939e-21)
(0.00156709 1.37149 0)
(0.389526 1.66898 0)
(0.36689 1.29765 -1.22202e-19)
(0.30228 1.34195 0)
(0.421729 1.29519 7.10367e-20)
(0.466807 1.45539 0)
(0.447829 1.401 -4.10082e-21)
(1.03545 2.68714 -1.59193e-20)
(0.965218 2.41036 -9.3798e-19)
(0.915178 2.19098 1.07035e-18)
(0.84944 2.37412 2.48611e-19)
(0.846992 2.49767 0)
(0.916975 2.4942 0)
(0.927202 2.37281 0)
(0.905925 2.35908 -9.65686e-19)
(0.688551 2.46577 -4.18037e-19)
(0.800877 2.45605 -1.02455e-19)
(0.811443 2.43005 7.8114e-20)
(0.694323 2.3902 0)
(0.799025 2.38598 0)
(0.757763 2.39828 -3.75931e-19)
(0.768929 2.48724 0)
(0.61326 1.09893 0)
(0.484253 0.927721 -5.22662e-19)
(0.552005 0.962175 -3.32366e-20)
(0.520256 1.05526 0)
(0.521363 1.00527 7.84882e-19)
(0.775173 0.879547 -1.42296e-19)
(0.783772 1.01596 0)
(0.757945 0.975658 2.08935e-19)
(0.644035 1.03497 0)
(0.648877 0.943101 0)
(1.16471 2.76294 -2.45726e-19)
(1.14243 2.82652 -1.07165e-19)
(0.932078 2.34701 1.16544e-19)
(0.899783 2.32473 -8.86459e-20)
(1.12951 2.73581 0)
(1.08281 2.70591 1.06713e-19)
(1.08942 2.48756 -3.29389e-19)
(0.983137 2.2353 -3.04806e-20)
(0.495658 1.35368 0)
(0.509169 1.07456 -1.31532e-19)
(0.562791 1.16527 0)
(0.85934 0.22234 0)
(0.787342 0.173427 0)
(0.730239 0.138477 0)
(0.855574 0.226573 -6.76078e-19)
(0.760323 0.21122 3.96143e-19)
(0.932628 0.0743203 -4.27401e-19)
(0.947866 0.12039 0)
(0.927384 0.132572 1.83183e-19)
(0.867242 0.108783 7.35057e-19)
(0.838799 0.0664612 -4.59962e-19)
(1.16205 3.36078 -7.1257e-19)
(1.20982 3.2801 0)
(1.16034 3.38876 -1.47062e-18)
(0.647802 3.54953 1.2491e-18)
(0.872747 3.11684 6.02102e-20)
(0.516837 0.850817 6.19587e-19)
(0.432991 0.84552 0)
(0.33807 0.483872 -1.5721e-19)
(0.454293 0.678913 8.92339e-19)
(0.536512 0.452482 -2.16178e-19)
(0.509758 0.507758 2.46908e-19)
(0.663128 0.529362 5.35488e-19)
(0.693873 0.553416 0)
(0.646468 0.609697 0)
(0.603607 0.54901 0)
(0.98549 0.60129 1.09945e-19)
(0.903761 0.536446 -5.63952e-19)
(0.928587 0.571039 4.32144e-19)
(0.964244 0.505764 -4.36519e-19)
(1.06783 0.478473 0)
(1.07557 0.569536 -1.10632e-19)
(0.845656 0.385358 -8.98688e-19)
(0.848843 0.372535 -1.11127e-18)
(0.796154 0.378523 7.00664e-19)
(0.792027 0.349167 -7.16332e-19)
(0.842278 0.306395 -5.59609e-19)
(0.794214 0.304832 6.87126e-19)
(1.02666 0.00562535 -5.19338e-19)
(1.02642 0.00583325 1.0586e-18)
(1.02928 -0.000156947 6.57061e-19)
(1.03332 0.00071642 -7.91534e-19)
(1.03352 0.00842858 0)
(1.03009 0.00899999 -1.28657e-18)
(0.0646489 1.64182 3.02787e-20)
(0.0456672 1.57141 0)
(0.0873903 1.69527 1.89493e-19)
(0.0986614 1.67807 -1.6849e-19)
(0.0870495 1.52295 6.09929e-20)
(0.0857751 1.50416 0)
(0.00969197 1.68167 0)
(-0.000773351 1.48572 -5.40084e-21)
(-0.000971906 1.425 4.85814e-21)
(-0.00716583 1.54399 3.86973e-21)
(-0.00107207 1.88669 -1.16449e-20)
(-0.01863 1.93759 8.42449e-21)
(0.494799 1.37171 -3.10014e-19)
(0.488958 1.37457 3.39569e-19)
(0.443927 1.29207 -6.25937e-20)
(0.431905 1.29195 9.9556e-21)
(0.625627 1.29891 0)
(0.543903 1.3865 7.14148e-20)
(0.559481 1.39459 -6.95028e-20)
(0.454813 1.27774 6.04797e-20)
(0.508739 1.23255 0)
(0.561242 1.19857 0)
(0.654789 2.42435 6.14222e-19)
(0.66957 2.46085 1.31386e-18)
(0.715405 2.47295 -9.05153e-19)
(0.614874 2.4481 -2.11825e-19)
(0.560166 2.54045 2.97159e-19)
(0.510352 2.51383 -7.91216e-19)
(0.97589 2.37985 -5.99277e-19)
(1.01199 2.39371 0)
(0.921608 2.16923 -6.93434e-19)
(1.05298 2.68503 0)
(1.05512 2.67174 0)
(0.612975 2.27494 -1.2582e-19)
(1.04284 3.1636 1.26036e-19)
(0.913882 3.03356 -2.95702e-20)
(0.281103 0.910811 0)
(0.321652 0.770982 -3.27306e-19)
(0.481558 0.727401 -3.30401e-19)
(0.3911 2.02174 0)
(0.467344 2.78542 -4.19133e-20)
(0.424007 2.54924 0)
(0.691306 0.678746 -8.85788e-19)
(0.772953 0.679447 1.21001e-18)
(0.793797 0.62233 -1.19857e-18)
(0.673542 0.64177 -1.14574e-19)
(0.729085 0.595358 -4.75138e-19)
(1.00501 2.76686 -9.58364e-20)
(1.04202 2.82399 -1.80243e-19)
(0.641344 2.15239 6.81603e-19)
(0.597585 1.71644 -4.84614e-19)
(0.700393 1.9089 -4.23081e-19)
(0.99047 2.45016 -1.15671e-19)
(0.995221 2.44436 3.14272e-19)
(0.661942 1.84882 2.92123e-20)
(0.452704 1.33574 1.52942e-19)
)
;

boundaryField
{
    wall-4
    {
        type            noSlip;
    }
    velocity-inlet-5
    {
        type            fixedValue;
        value           uniform (1 0 0);
    }
    velocity-inlet-6
    {
        type            fixedValue;
        value           uniform (0 3 0);
    }
    pressure-outlet-7
    {
        type            zeroGradient;
    }
    wall-8
    {
        type            noSlip;
    }
    frontAndBackPlanes
    {
        type            empty;
    }
}


// ************************************************************************* //
