/*--------------------------------*- C++ -*----------------------------------*\
| =========                 |                                                 |
| \\      /  F ield         | OpenFOAM: The Open Source CFD Toolbox           |
|  \\    /   O peration     | Version:  4.0                                   |
|   \\  /    A nd           | Web:      www.OpenFOAM.org                      |
|    \\/     M anipulation  |                                                 |
\*---------------------------------------------------------------------------*/
FoamFile
{
    version     2.0;
    format      ascii;
    class       volScalarField;
    location    "12";
    object      p;
}
// * * * * * * * * * * * * * * * * * * * * * * * * * * * * * * * * * * * * * //

dimensions      [0 2 -2 0 0 0 0];

internalField   nonuniform List<scalar> 
918
(
0.228776
0.934554
0.00643155
0.228138
0.000261794
0.901721
-0.846253
0.418224
0.208598
-0.135732
0.0206091
0.200045
0.762056
0.529895
-1.45392
0.0146237
0.367825
-0.637397
0.20693
0.00596088
0.504993
0.215317
0.218529
0.209283
0.263951
0.524964
0.642603
0.000326881
-0.00227577
-0.00190848
0.0027893
-0.00223384
0.00404322
0.785366
0.836451
0.859091
0.176643
0.042156
-0.692839
-0.772887
-0.759062
-0.878507
0.402846
0.408788
-0.491549
0.41568
0.42958
0.197294
0.208043
0.209051
0.209921
0.209196
0.210626
0.303058
-0.153968
-0.214924
-0.0803986
-0.061367
0.0832625
0.0189127
0.0124625
0.0211646
0.0224833
0.139147
0.196989
0.193091
0.203352
0.21369
0.874101
0.846016
0.872146
0.785806
0.802344
0.740042
0.712621
0.549661
0.570721
0.515867
0.506959
-1.89211
-2.86402
-0.853631
-0.590277
0.00152553
0.0213756
0.0268796
0.347443
0.356027
0.361305
0.374382
0.796616
-0.594457
-0.818809
0.206554
0.205019
0.215126
0.21601
0.212347
0.211284
0.0131924
0.0191613
-0.00394935
0.00562876
0.00309645
0.479175
0.471393
0.210155
0.207077
0.221193
0.24536
0.231868
-0.0187673
0.278882
0.308569
0.322104
0.505189
0.503206
0.510822
0.616012
0.578706
0.680108
0.703447
0.00736387
0.00210207
0.0113252
0.00727346
0.0105147
0.175397
0.170483
0.189146
0.178424
0.18275
-0.0465579
-0.179987
0.131677
0.164192
-0.60051
-0.674802
-0.735197
-0.781416
-0.847501
0.151086
0.39221
0.395941
-0.50995
-0.416503
-0.576875
-0.342514
-0.419132
0.184842
0.194106
0.188146
0.203818
0.199127
0.199734
0.212155
0.209485
0.21093
0.333177
0.400748
0.256608
0.232661
-0.423853
-0.272524
-0.422367
-0.032889
-0.0229462
0.0935678
0.107379
0.0727491
0.0699338
-0.00601504
0.00965809
-0.00346068
0.0253866
0.0273005
0.133154
0.12326
0.148025
0.154789
0.188511
0.1884
0.19153
0.191155
0.663147
0.685435
0.693217
0.66707
-3.87149
-6.68075
-0.256349
-0.108824
0.00204592
0.00269947
0.00159822
0.00231206
0.00357627
0.00061248
0.0428521
0.0384527
0.0306601
0.0348706
0.33636
0.340824
0.784645
0.864011
0.702747
0.718438
0.194652
0.198372
0.202575
0.198454
0.0265204
0.0211596
0.026994
0.430109
0.451763
0.45267
-0.0540122
-0.141586
0.0295334
0.0565169
0.325361
0.308891
0.330606
0.386039
0.424175
0.710563
0.728861
0.727461
0.73592
0.779955
0.796364
0.761514
0.159529
0.168641
0.164602
0.193604
0.190759
0.191324
0.186638
0.189892
0.187853
-0.334462
-0.71328
0.241793
0.264158
0.220949
0.229053
0.244604
0.399321
0.369852
0.381701
0.388379
-0.27648
-0.346566
0.19971
0.181392
0.0827842
0.109483
0.0950413
0.634449
0.595075
0.645032
0.618356
0.580021
0.605455
-0.66405
-2.19284
-1.28862
0.26145
0.0639181
0.1563
0.0610828
0.0479906
0.0505699
0.811271
0.844239
0.453979
0.602596
0.565402
0.467612
0.499756
0.551419
0.47576
0.510612
0.548066
0.530576
0.105583
0.188963
0.101436
0.497762
0.604826
-0.165245
-0.210999
-0.273825
0.11791
0.153054
0.134033
0.779334
0.629205
0.746706
0.20658
0.20707
0.0106404
0.0162494
0.210799
0.211217
0.00608469
0.00862884
0.136291
-1.16168
-0.175576
0.198825
0.189934
0.206513
-0.117382
0.3023
0.0194276
0.0922611
0.0603047
0.195843
0.148942
0.112908
0.00678601
0.0189134
0.013915
-0.477589
0.203892
0.202163
0.205985
0.207363
0.208139
0.00944835
0.00966876
0.00641524
0.011809
0.00911268
0.0092046
0.176683
0.186953
-0.498784
0.20639
0.208364
0.208406
0.201867
0.20713
0.205112
0.0154878
0.0116527
0.0113562
-0.0669953
0.0487273
0.40027
0.515019
0.346577
0.115255
-0.13648
0.291551
0.363435
0.255742
0.429931
0.373311
0.398611
-0.120201
-0.265956
-0.102894
-0.157124
0.19685
0.196603
0.188634
0.182465
0.201631
0.200118
0.204162
0.202275
0.20478
0.205505
-0.0684354
-0.0647555
-0.152584
-0.233826
0.328773
0.415363
0.232955
0.247394
0.146258
0.0229228
0.0236943
0.0199556
0.013387
0.05709
0.0635118
0.0790423
0.0754308
0.049508
0.046839
0.0524149
0.0576466
0.0620163
0.191044
0.19117
0.195354
0.202442
0.155463
0.159578
0.130715
0.146821
0.137592
0.080273
0.113445
0.0927911
0.00821814
0.0098182
0.00835702
0.0236744
0.029379
0.0149246
0.013681
0.0128938
0.0104007
0.0113566
0.0179459
0.0221983
-0.504886
-0.568264
0.881037
0.675413
-0.0480357
0.19337
0.199117
0.196847
0.202119
0.204094
0.20431
0.202294
0.199739
0.187429
0.189061
0.185603
0.185752
-0.445537
-0.580541
-0.402128
-0.456695
-0.143402
0.311073
0.0604444
-0.000558771
-0.00408208
0.208724
0.593157
0.414857
0.468563
0.487151
-0.674015
-0.272155
-0.603456
0.00755695
-0.187218
0.396258
0.451476
0.477276
0.420617
0.366915
-0.402747
0.196222
-0.370496
-0.336649
-0.151354
-0.234476
0.426556
0.358019
0.364184
0.386543
0.409522
0.3602
0.341583
0.336722
0.377583
0.382354
0.1768
-0.0292744
-0.0784092
-0.111155
0.337713
0.218575
0.27139
0.193503
0.191364
0.194372
0.192876
0.179072
0.1852
0.178283
0.186087
0.187523
0.197586
0.197197
0.192785
0.194982
-0.0372524
-0.0235327
-0.12079
-0.352727
-0.247287
-0.339945
-0.184265
0.0887624
0.0945755
0.118702
0.235729
0.010697
-0.323731
-0.219166
-0.383119
-0.00485021
-0.128364
0.10486
0.156751
0.169189
0.141423
0.209707
0.1953
0.0383069
0.0477052
0.030342
0.0299211
0.0991231
0.122194
0.114335
0.0482444
0.049107
0.0257565
0.0271581
0.0710198
0.0420655
0.0544565
0.0646803
0.0223872
0.0247312
0.0291001
0.0405293
0.0398045
0.0426318
0.186962
0.188574
0.187945
0.198344
0.210414
0.223508
0.194009
0.17264
0.165707
0.169363
0.146083
0.15294
0.15092
0.159643
0.178441
0.184325
0.183882
0.185147
0.170986
0.173174
0.160809
0.163926
0.1473
0.131915
0.119596
0.0189887
0.0114671
0.0149934
0.0160836
0.010512
0.0131388
0.0430954
0.0341956
0.039484
0.0338
0.0370821
0.0169569
0.0182046
-0.542927
-0.49293
-0.566883
-0.579396
-0.629175
0.801469
0.822797
0.668298
0.403352
0.422336
0.681191
0.788465
0.418806
0.485791
0.52593
0.0358943
0.512366
0.200662
0.198817
0.195267
0.195659
0.198113
-0.336472
-0.24062
-0.233776
-0.1855
-0.000515979
0.106108
0.110447
-0.240259
-0.0773769
-0.0452579
0.303778
0.320798
0.266462
0.292279
0.291162
0.126843
0.193284
0.242341
0.207999
0.245477
0.264864
0.227252
0.256009
0.209251
0.170816
0.171284
0.117552
0.13566
0.116437
0.0990287
0.187635
0.167548
0.177048
0.170731
0.188559
0.22053
0.211776
0.23237
0.249763
0.177793
0.1425
0.150375
0.177284
0.139655
0.150387
0.165104
-0.020146
-0.106673
-0.0572597
-0.419205
-0.29862
-0.315736
-0.365234
-0.33068
-0.0397841
-0.772342
-0.715692
-1.35269
0.138615
0.621771
0.384694
0.357053
0.40644
0.380573
0.379815
0.419827
0.426476
0.328483
0.349822
0.350423
0.30166
0.328688
0.356148
0.354405
0.176195
0.0686395
0.0569889
0.0247318
-0.102145
-0.0736379
0.134257
0.0589898
-0.0126309
-0.00298748
0.154293
0.0575103
0.117063
0.150745
0.0840354
0.0444979
0.234226
0.296219
0.293306
0.262962
0.184629
0.195722
0.220697
0.251621
0.279223
0.314337
0.187084
0.19149
0.193147
0.190652
0.186971
0.18938
0.188663
0.190906
0.191832
0.194608
0.193121
0.012088
0.0191405
-0.00636151
0.00130214
-0.00266347
-0.0328184
0.0377623
-0.036188
0.0316534
0.0283699
-0.00266461
-0.0115738
-0.000958072
0.0162994
0.148686
0.1742
0.159406
0.107022
0.153875
0.354627
0.316235
0.277232
0.171978
0.217319
0.300464
0.0816299
0.0929249
0.0779207
0.103072
0.0980043
0.0299101
0.028518
0.0319631
0.0407461
0.0380675
0.0299292
0.0248705
0.0253619
0.0277379
0.026619
0.026392
0.172868
0.169044
0.170891
0.164628
0.163211
0.175847
0.178661
0.179803
0.184208
0.185625
0.178499
0.181688
0.184361
0.0284914
0.0224039
0.0242061
0.0234569
0.0245013
0.0210727
0.0204598
-0.635009
-0.600027
-0.60358
-0.620416
-0.537835
-0.579348
0.0896055
-0.0629243
0.108515
0.363992
0.194987
0.135157
0.157382
0.251398
-0.212253
0.0508761
-0.159952
0.670095
0.484811
0.635065
0.17358
-0.0928019
0.0478344
0.1063
-0.0587401
-0.00883312
-0.00249599
-0.110487
-0.0831852
-0.0446805
0.0575405
0.00456442
0.015417
-0.1677
0.0288428
0.0185706
-0.0151159
0.134735
0.218445
-0.0139288
-0.0814901
-0.175561
0.29541
0.313533
0.328506
0.304778
0.324188
0.25326
0.243537
0.26326
0.272685
0.265514
-1.09924
-0.821755
-1.75009
-1.06825
-0.659225
0.157359
0.129558
0.382347
0.290313
0.381201
0.363813
0.328615
0.29369
0.294878
0.333338
0.0530827
0.155324
0.128655
0.137126
0.0451817
-0.01521
0.264764
0.261135
0.29655
0.321232
0.282391
0.323447
0.183217
0.183582
0.183321
0.180359
0.176586
0.178213
0.0894757
0.0677224
0.0984164
0.0807463
0.0554332
0.0563377
0.0344187
0.0301498
0.0270342
0.0279732
0.031931
0.0363353
-0.266486
-0.400303
-0.622983
-0.637882
-0.375532
-0.474415
-0.460626
-0.521195
-0.367293
-0.317612
0.0277903
0.395935
0.116932
0.409038
0.160505
0.336705
0.187215
0.245844
0.269059
0.101716
0.134694
-0.194691
-0.632927
-0.560781
0.403843
0.409634
0.191043
-0.0283067
-0.247174
-0.0325172
0.211504
0.153728
0.194901
0.259716
0.256135
-0.340503
-0.261358
-0.0603661
0.17559
-0.0904417
-0.103357
-0.0984066
0.039145
-0.0273057
)
;

boundaryField
{
    wall-4
    {
        type            zeroGradient;
    }
    velocity-inlet-5
    {
        type            zeroGradient;
    }
    velocity-inlet-6
    {
        type            zeroGradient;
    }
    pressure-outlet-7
    {
        type            fixedValue;
        value           uniform 0;
    }
    wall-8
    {
        type            zeroGradient;
    }
    frontAndBackPlanes
    {
        type            empty;
    }
}


// ************************************************************************* //
