/*--------------------------------*- C++ -*----------------------------------*\
| =========                 |                                                 |
| \\      /  F ield         | OpenFOAM: The Open Source CFD Toolbox           |
|  \\    /   O peration     | Version:  4.0                                   |
|   \\  /    A nd           | Web:      www.OpenFOAM.org                      |
|    \\/     M anipulation  |                                                 |
\*---------------------------------------------------------------------------*/
FoamFile
{
    version     2.0;
    format      ascii;
    class       volVectorField;
    location    "12";
    object      U;
}
// * * * * * * * * * * * * * * * * * * * * * * * * * * * * * * * * * * * * * //

dimensions      [0 1 -1 0 0 0 0];

internalField   nonuniform List<vector> 
918
(
(0.985253 -0.000477693 0)
(0.00500435 2.96626 0)
(-0.00423056 1.6561 0)
(0.979752 0.00211339 0)
(0.000705971 1.62581 1.30048e-21)
(-0.00703359 2.94878 -1.91628e-18)
(0.835561 1.1874 7.38838e-19)
(0.508246 0.245816 -9.13387e-21)
(0.999951 -0.000441315 0)
(0.0346271 1.37916 0)
(-0.00942575 1.4234 0)
(0.842352 -0.00443841 0)
(0.0111098 2.93035 0)
(0.00106317 2.7944 0)
(-0.0205129 3.17578 1.08012e-18)
(-0.0029769 1.53945 -1.67619e-20)
(0.605964 0.110061 5.64819e-19)
(0.208956 1.3647 5.32936e-19)
(0.96642 0.00623393 0)
(0.00279478 1.52589 0)
(0.177268 0.282298 -4.97532e-19)
(1.00133 -0.00517862 0)
(0.999985 -0.0101874 0)
(0.975374 -0.00666742 0)
(0.758886 -0.0257452 0)
(0.0189382 2.62728 0)
(-0.0153942 2.91023 6.66314e-19)
(-0.00943676 1.68085 0)
(-0.0100232 1.76615 0)
(-0.00836563 1.67852 0)
(0.0047302 1.79932 0)
(0.00250233 1.63955 -1.02969e-21)
(-0.00129219 1.55199 0)
(-0.0206077 2.98759 -6.72092e-23)
(-0.0167042 3.0053 1.4895e-18)
(0.00210229 3.0002 0)
(0.882733 -0.00367121 0)
(0.377476 0.898338 -1.08629e-20)
(0.838671 1.19388 -1.04259e-18)
(0.984726 1.04737 9.75677e-19)
(0.717651 1.27003 -1.75719e-19)
(0.681685 1.26811 9.92183e-19)
(0.544137 0.312224 8.91167e-21)
(0.53647 0.216313 0)
(1.19578 0.571649 0)
(0.4997 0.330136 4.12871e-20)
(0.46546 0.241284 -4.28401e-20)
(0.916023 -0.00752641 0)
(1.00032 6.36355e-05 0)
(0.99995 0.000300676 0)
(1.00458 -0.00797148 0)
(1.00045 -0.000509591 0)
(1.00014 0.000149773 0)
(0.0371871 1.58265 -5.80544e-19)
(0.00800877 1.49601 0)
(0.0439428 1.36284 0)
(0.00418018 1.53005 0)
(0.0260921 1.3755 0)
(0.00326338 1.58866 0)
(-0.0152291 1.55408 0)
(-0.00414727 1.40952 0)
(-0.0160081 1.5827 0)
(-0.0115587 1.45036 0)
(0.914023 0.000509602 0)
(0.911606 0.00529455 0)
(0.853494 0.000174908 0)
(0.905983 0.00869631 0)
(0.830047 -0.0031087 0)
(0.0146974 3.0004 7.0232e-19)
(0.0115198 3.00793 0)
(0.00612713 3.00283 0)
(0.0135571 2.99735 7.8428e-24)
(0.00797876 2.95846 -1.04382e-18)
(0.0145406 2.98206 0)
(0.0107882 2.90356 0)
(0.0252022 2.93023 1.42476e-24)
(0.00416674 2.82507 0)
(0.0319264 2.91503 0)
(-0.00680034 2.74282 0)
(0.30798 3.57142 0)
(-0.132726 3.65415 0)
(0.137962 3.26573 -1.00523e-18)
(-0.0089999 2.99827 0)
(0.00301781 1.77633 0)
(-0.00336043 1.65143 1.65359e-20)
(-0.00233828 1.55119 -2.61848e-20)
(0.666327 0.163529 -1.93797e-19)
(0.625481 0.0711172 -1.87673e-19)
(0.63468 0.197954 -5.82259e-19)
(0.59058 0.133671 -3.89611e-19)
(0.270665 1.14534 0)
(0.179965 1.37757 -5.86546e-19)
(0.381705 1.3104 9.89177e-19)
(0.988511 0.0102017 0)
(0.943554 0.0094506 0)
(1.00034 0.00066097 0)
(1.00263 0.00953209 0)
(1.00227 0.00860665 -1.06518e-18)
(0.991837 0.00951804 8.12978e-19)
(-0.00400321 1.62966 0)
(-0.00131502 1.52568 0)
(-0.0122816 1.69062 0)
(-0.00758541 1.6479 0)
(0.00156593 1.53716 0)
(0.263617 0.292109 1.52597e-19)
(0.305448 0.270413 0)
(0.99285 -0.00851127 0)
(0.954738 -0.00570159 0)
(0.881173 0.022691 0)
(0.845274 0.0295186 0)
(0.803026 -0.00293921 0)
(1.03027 -0.0020875 0)
(0.797511 0.0319593 0)
(0.685548 -0.0176083 7.6188e-19)
(-0.0347718 2.86672 3.50162e-19)
(0.0441531 2.90684 0)
(0.0582161 2.88207 0)
(-0.0060191 2.6947 0)
(-0.012774 2.98534 6.13698e-19)
(-0.0184252 2.89593 0)
(-0.0153467 2.98812 -1.93883e-18)
(-0.0134889 2.92519 6.6927e-19)
(-0.00562703 1.80991 0)
(-0.00300621 1.8051 0)
(-0.00116728 1.65344 -3.3821e-22)
(0.00138365 1.63891 0)
(-0.00219316 1.53787 0)
(0.941404 0.00126619 0)
(0.884463 0.00222625 0)
(0.862958 -5.67753e-06 0)
(0.941431 -0.00298008 0)
(0.88361 -0.00265173 0)
(0.489883 1.08871 3.03231e-21)
(0.537354 1.14743 0)
(0.343544 0.837908 7.74059e-21)
(0.277436 0.711397 0)
(0.954613 1.08097 -2.82823e-19)
(1.07707 0.89709 5.83105e-19)
(0.38305 1.3499 0)
(0.55553 1.33444 0)
(0.515044 1.30509 0)
(0.08507 0.0032586 -9.12974e-20)
(0.575783 0.288558 0)
(0.567098 0.198413 1.12806e-19)
(1.04577 0.943835 0)
(1.1156 0.789212 0)
(1.14183 0.737892 -5.05953e-19)
(1.17697 0.628822 0)
(1.23104 0.415986 6.18125e-20)
(0.948534 -0.00292293 0)
(0.955619 -0.00808711 0)
(0.897923 -0.00496194 0)
(0.985194 -0.00883925 0)
(0.974167 -0.0078786 0)
(0.939253 -0.00588016 0)
(1.00023 0.0023213 0)
(1.00076 0.00138412 0)
(0.999937 0.000744712 0)
(0.0210148 1.6852 3.1542e-19)
(0.063548 1.5594 0)
(0.0100306 1.71258 5.09169e-19)
(0.0190435 1.59583 -4.32875e-19)
(0.0498071 1.40552 -4.39572e-19)
(-0.0100014 1.46186 0)
(0.0752588 1.36183 0)
(0.000319164 1.54458 0)
(0.0176067 1.38127 0)
(0.000958449 1.6762 -1.26661e-21)
(0.00374974 1.58667 0)
(-0.00106824 1.6879 -6.19207e-20)
(-0.0034638 1.59373 1.18498e-19)
(0.00153354 1.55285 0)
(-0.00653971 1.55007 0)
(0.0106982 1.39522 0)
(-0.0176236 1.60481 0)
(-0.0103771 1.47472 0)
(0.979466 0.013502 0)
(0.931397 0.00450295 0)
(0.963425 0.00657257 0)
(0.905488 0.00177364 0)
(0.859888 -0.00532206 0)
(0.931353 0.00194006 0)
(0.924244 0.00819508 0)
(0.857282 0.00201346 0)
(0.00591099 3.06478 -6.20888e-21)
(0.016249 3.05812 0)
(0.0147519 2.96912 0)
(0.00846289 2.87633 0)
(0.921394 3.98687 0)
(1.23449 3.30995 1.0077e-18)
(0.0721511 3.09061 0)
(-0.0244213 2.91481 0)
(-0.00609632 1.79602 0)
(-0.00467213 1.78093 0)
(-0.0013182 1.78457 0)
(0.00124505 1.78726 3.67532e-21)
(-0.00125648 1.77796 0)
(0.0048161 1.78003 0)
(-0.00302676 1.56155 4.17076e-21)
(-0.00324015 1.67196 3.53819e-20)
(-0.00343355 1.66344 2.67588e-20)
(-0.00213211 1.55414 0)
(0.692941 0.132382 2.85117e-19)
(0.660634 0.0507186 -2.76517e-19)
(0.237774 1.32173 0)
(0.301443 0.962408 -2.72945e-19)
(0.170258 1.43577 -7.90733e-19)
(0.204693 1.29935 7.90192e-19)
(0.896873 0.00977918 0)
(0.965654 0.0136929 0)
(0.975822 0.0136155 0)
(0.922233 0.0114325 0)
(-0.0147762 1.61965 0)
(-0.00853669 1.62787 0)
(-0.00706603 1.50048 0)
(0.452566 0.347856 3.79909e-19)
(0.373549 0.326596 -4.65468e-19)
(0.388009 0.245693 0)
(1.14845 0.0844485 -3.42025e-21)
(1.13394 0.0387211 0)
(1.06344 0.0339412 0)
(0.979579 0.00193443 0)
(0.720475 0.0914994 0)
(0.744427 0.0527795 -1.22395e-18)
(0.677424 0.0155643 4.68672e-19)
(0.0101461 2.98284 4.3889e-19)
(-0.0319301 2.86883 4.89136e-20)
(0.00384766 3.05019 -1.33893e-20)
(0.0199686 3.04358 4.81655e-19)
(-0.0150331 2.99655 2.22245e-20)
(-0.0130076 2.94943 -8.9926e-23)
(-0.0172977 3.01199 -4.205e-19)
(0.0147994 3.024 3.03831e-19)
(0.00727435 3.03674 -4.75569e-19)
(0.959342 0.00638908 0)
(0.952267 0.00551634 0)
(0.892377 0.00470462 0)
(0.952095 0.0125893 0)
(0.936895 0.00959275 0)
(0.873371 0.00822003 0)
(0.932814 -0.00261585 0)
(0.925985 -0.000119358 0)
(0.860547 -0.00738571 0)
(0.691773 1.38049 3.02472e-19)
(0.730887 1.49605 0)
(0.209531 0.378792 3.04316e-20)
(0.145412 0.548448 2.99809e-19)
(0.246877 0.666201 -1.50728e-19)
(0.213363 0.573341 2.94533e-19)
(0.35665 0.621868 6.03963e-19)
(0.113671 0.109708 2.56834e-19)
(0.619921 0.225889 4.22808e-19)
(0.599855 0.254367 1.03424e-19)
(0.575662 0.164138 2.16553e-19)
(1.2194 0.469142 2.95045e-19)
(1.23756 0.263408 3.09527e-19)
(-0.00154749 1.7161 2.00812e-19)
(0.00382309 1.59672 0)
(1.01877 0.0230121 0)
(0.993209 0.012918 0)
(0.950715 -0.00295314 0)
(0.0107725 3.07455 0)
(0.0201085 2.94403 8.30889e-19)
(0.0166329 2.95641 0)
(0.00608728 2.85081 -8.24125e-19)
(0.00595498 3.09132 1.97351e-19)
(0.00774499 3.08244 0)
(0.763655 1.80598 -2.29336e-19)
(1.23886 2.5023 6.23523e-19)
(0.747549 1.95211 -1.46346e-18)
(0.0217272 2.98609 -3.24482e-19)
(0.0387013 3.01187 0)
(-0.0311458 2.884 0)
(-0.00860399 1.67472 -8.13179e-21)
(-0.00537716 1.67654 -8.2754e-20)
(-0.00557859 1.5782 -5.64016e-21)
(0.306267 1.22101 8.42305e-19)
(0.312073 0.777758 -5.60753e-19)
(0.0398916 1.63735 5.27555e-19)
(0.0882382 1.5449 -6.51558e-19)
(0.112746 1.45697 8.10807e-20)
(0.00246898 3.11864 -1.17148e-18)
(0.0178129 3.11767 1.25088e-18)
(-0.00842695 2.9814 5.33982e-19)
(-0.002416 2.97831 -4.74758e-19)
(-0.0212804 2.88301 -5.4384e-19)
(0.00909938 3.09923 -1.44899e-18)
(0.00267705 3.10624 1.40645e-18)
(0.226608 0.497404 0)
(0.0603686 0.494369 -3.55414e-19)
(0.122291 0.12124 1.50402e-19)
(0.389448 0.773684 7.28294e-19)
(0.222387 0.239076 -1.10338e-18)
(1.23079 0.171478 -5.54575e-20)
(1.23454 0.313849 0)
(1.2189 0.120587 1.21362e-19)
(-0.00611455 1.68826 -1.61448e-21)
(-0.00891528 1.6988 0)
(-0.000496106 1.58599 0)
(0.335738 1.0648 -2.90064e-19)
(0.346755 0.960996 -5.79337e-19)
(0.243236 0.501762 1.0005e-18)
(1.00552 -0.00988825 0)
(1.00742 -0.00799786 1.95006e-19)
(-0.00522678 1.80282 0)
(-0.0103089 1.80896 0)
(1.00263 0.0036839 1.87238e-21)
(1.00218 0.0084768 3.99196e-19)
(0.00206777 1.78962 -4.73315e-21)
(0.00167767 1.79026 0)
(0.043711 3.18985 1.26077e-19)
(0.399737 3.5096 0)
(1.10141 0.640165 6.40991e-20)
(1.01332 0.0132917 -2.68455e-21)
(1.01375 -0.0217334 0)
(1.0015 0.000438293 2.15684e-22)
(-0.0582804 1.67521 0)
(0.0226582 1.90164 0)
(-0.0185578 1.78524 0)
(0.00347969 1.81946 9.05797e-20)
(-0.0074198 1.80914 4.22437e-20)
(1.00347 0.0116254 2.26936e-21)
(1.04489 0.0150711 0)
(1.07435 0.0234279 0)
(-0.00812572 1.78328 0)
(-0.00747028 1.80043 0)
(-0.0108209 1.79635 0)
(0.0629336 1.36064 -4.35086e-19)
(1.01149 -0.00880018 0)
(1.01032 -0.0137415 0)
(1.00299 0.000636661 2.48909e-19)
(1.0061 -0.00542906 -2.97037e-19)
(1.00107 -0.00132434 0)
(-0.0107247 1.78618 0)
(-0.00540203 1.79772 0)
(-0.00568075 1.79251 0)
(-0.00806502 1.79838 0)
(-0.00647938 1.79548 0)
(-0.00799854 1.79818 0)
(1.0232 0.0114431 0)
(1.02319 0.00177789 -9.65439e-22)
(0.769749 1.23668 5.3036e-19)
(1.00202 0.000655384 -2.47503e-19)
(1.00378 0.00530065 2.9952e-19)
(1.00126 0.00196212 0)
(1.01046 0.0103976 2.43022e-19)
(1.00793 0.00978825 -2.99573e-19)
(1.00514 0.0149704 0)
(-0.0067549 1.80062 0)
(-0.00135826 1.79479 1.41513e-20)
(-0.00288046 1.79491 -9.70413e-21)
(1.1781 0.260677 -6.23486e-20)
(1.11376 0.0791222 0)
(0.0599437 3.07856 -5.48926e-19)
(0.0710627 2.84935 -4.3982e-20)
(0.152813 3.19912 8.36059e-19)
(0.144545 3.22758 -1.04238e-20)
(0.145088 3.25234 0)
(0.0231023 3.13966 1.19518e-19)
(0.0847324 3.16349 5.35914e-19)
(0.0767846 3.19202 -2.30979e-19)
(0.0272611 3.12848 0)
(0.708563 0.342862 0)
(0.612082 0.395076 0)
(1.08126 0.670072 -2.48259e-19)
(1.07076 0.811627 3.87118e-19)
(1.12846 0.557038 0)
(1.1626 0.50725 0)
(1.01546 0.0125226 -4.55014e-19)
(1.01231 0.0163222 5.65111e-19)
(1.01215 -0.0207952 0)
(1.0104 -0.0175 0)
(1.00711 0.00117192 0)
(1.01147 0.00258547 0)
(1.00453 0.00317817 0)
(1.01161 0.00710523 0)
(1.00628 0.00561598 0)
(1.00547 0.00441213 0)
(-0.0441598 1.68532 0)
(-0.0276765 1.71639 0)
(-0.0838482 1.65372 0)
(-0.0645466 1.61039 0)
(0.031724 1.90792 0)
(0.0918366 1.89237 -3.39011e-19)
(0.0124015 1.89899 0)
(0.00431978 1.88029 1.56615e-19)
(-0.0191572 1.8424 -1.57739e-19)
(-0.0212195 1.7841 0)
(-0.0236732 1.78358 0)
(-0.013863 1.78543 0)
(-0.00694735 1.7755 0)
(-0.0152706 1.81179 -4.53862e-20)
(-0.00592955 1.81114 5.70832e-20)
(0.0032645 1.82045 7.59831e-20)
(0.00200992 1.8163 0)
(-0.00999709 1.81143 -9.55378e-20)
(-0.00918572 1.80855 -5.45995e-20)
(-0.0101506 1.8104 3.63369e-20)
(-0.0123036 1.8068 -7.8083e-20)
(-0.00612249 1.81647 -9.5893e-20)
(1.01017 0.0164454 4.39482e-19)
(1.00889 0.00433433 -5.51516e-19)
(1.00444 0.0199549 -4.58747e-19)
(0.989848 0.0152057 5.80495e-19)
(1.0383 0.0162502 0)
(1.04018 0.00977018 0)
(1.06019 0.0349121 0)
(1.0453 0.0192018 0)
(1.05961 0.0124941 0)
(1.10118 0.0650509 0)
(1.07753 0.0474045 0)
(1.09472 0.0340777 0)
(-0.00270212 1.78713 -1.55722e-21)
(-0.0080652 1.77948 0)
(-0.0056341 1.78066 0)
(-0.00662144 1.80249 1.53309e-20)
(-0.00537064 1.8025 -7.50506e-22)
(-0.0131104 1.7812 1.60866e-20)
(-0.0111236 1.78573 -1.60717e-20)
(-0.0106503 1.79389 0)
(-0.00883123 1.79487 0)
(-0.0102747 1.79615 0)
(-0.0126116 1.79505 0)
(-0.0129859 1.79725 0)
(0.21531 1.30062 9.10472e-19)
(0.343383 1.32045 3.38024e-19)
(0.432479 2.09909 -2.04544e-19)
(0.235929 1.93436 4.88533e-19)
(-0.0809904 2.3835 1.94919e-20)
(1.01524 -0.0203109 0)
(1.01583 -0.0136148 0)
(1.01267 -0.02344 0)
(1.00901 -0.00152463 0)
(1.00546 -0.00239326 0)
(1.00648 -0.00436925 0)
(1.00974 -0.0042801 0)
(1.01136 -0.00924851 0)
(1.02439 0.00376635 4.34316e-19)
(1.01765 0.0100298 -5.47781e-19)
(1.02368 0.00119416 -4.24532e-19)
(1.02064 0.00208224 5.2273e-19)
(0.756179 1.24731 0)
(0.639961 1.32253 6.43664e-19)
(0.866067 1.16983 3.7112e-19)
(0.905066 1.12916 -4.9565e-19)
(1.11861 2.57791 -4.43735e-19)
(0.821447 0.109089 2.91442e-19)
(1.11505 0.0903469 0)
(1.15754 0.173396 5.71241e-20)
(1.14732 0.150413 2.51719e-21)
(0.964209 0.134499 0)
(0.164646 2.97042 1.18531e-19)
(0.133407 2.87653 -6.93141e-19)
(0.0443241 2.34178 5.08343e-19)
(0.11943 0.150355 -2.08725e-19)
(0.342535 3.43996 -4.44488e-19)
(0.200678 3.33037 0)
(0.242403 3.37992 5.78868e-19)
(0.260527 3.049 -7.21293e-19)
(0.360694 3.21083 0)
(0.00699603 3.12069 2.78048e-20)
(0.0177831 3.12985 -3.55297e-19)
(0.0157764 3.1256 5.2295e-19)
(0.0396942 3.14051 0)
(0.0384669 3.15259 0)
(1.17784 2.59915 0)
(0.509248 0.823044 -2.19803e-19)
(1.01075 0.982952 -2.06072e-19)
(0.964381 1.05612 0)
(0.82417 0.941119 6.03469e-20)
(1.03584 0.863685 3.30597e-20)
(0.407666 0.487969 -5.51984e-19)
(0.735503 0.334315 -2.3932e-20)
(0.737411 0.283432 2.24029e-19)
(0.609862 0.437713 1.78539e-20)
(0.557459 0.431025 -7.35225e-19)
(0.705614 0.370428 0)
(0.681429 0.433314 3.70144e-19)
(0.695254 0.433493 0)
(0.655384 0.411825 0)
(0.671241 0.35992 0)
(0.732789 0.604806 1.30968e-19)
(1.16386 0.267696 2.89262e-20)
(1.16327 0.398069 0)
(1.18615 0.368335 0)
(0.784455 0.21871 3.32082e-19)
(0.782596 0.535807 -1.84294e-19)
(0.686463 0.509271 3.00931e-19)
(0.876681 0.404222 -2.8527e-19)
(1.01767 0.0144487 2.95065e-19)
(1.0156 0.0173139 -3.06936e-19)
(1.01284 0.0214989 0)
(1.02014 0.0103941 0)
(1.0112 -0.00913085 -2.66345e-19)
(1.00847 -0.00124687 2.69739e-19)
(1.03063 0.00347735 0)
(1.02886 0.00166218 0)
(1.01323 0.005371 0)
(1.01634 0.01181 0)
(1.02578 0.00200899 0)
(1.01946 0.00196432 0)
(-0.0243407 1.73491 0)
(-0.0213218 1.74109 0)
(-0.14334 1.67479 8.45884e-20)
(0.0105706 1.43795 1.84336e-19)
(-0.0736999 1.56255 3.65088e-19)
(-0.0256186 1.47433 -5.96334e-19)
(-0.181474 1.64733 0)
(-0.173806 1.90287 -5.39219e-20)
(-0.142048 1.89736 0)
(-0.11831 2.36995 -2.73377e-20)
(-0.0175689 2.28155 4.05491e-19)
(-0.220769 1.92448 4.86397e-20)
(-0.159069 1.51561 1.43221e-19)
(-0.199504 1.6197 -1.14219e-19)
(-0.209378 1.51406 4.00662e-19)
(-0.220054 2.01675 0)
(-0.212852 2.06012 -2.28012e-19)
(-0.0424194 1.82507 -4.31631e-20)
(-0.0201122 1.84992 0)
(-0.0323963 1.8349 1.77616e-19)
(-0.0409642 1.83073 0)
(-0.00580358 1.8733 -1.74414e-19)
(-0.00997792 1.86316 0)
(-0.0136423 1.79729 -3.38223e-20)
(-0.0121821 1.80219 0)
(-0.0181037 1.79275 0)
(-0.0165473 1.79552 3.98399e-20)
(-0.0113155 1.82534 -5.28862e-22)
(-0.0206085 1.83954 1.90674e-19)
(-0.00912494 1.83082 1.27038e-21)
(-0.0147328 1.79821 3.09088e-20)
(-0.0151063 1.79859 1.8435e-20)
(-0.0244743 1.78606 0)
(-0.0216652 1.78753 0)
(-0.0323541 1.80801 1.02065e-19)
(-0.0233274 1.79161 6.49505e-20)
(-0.0227705 1.79845 -9.4241e-20)
(-0.046499 1.81708 0)
(-0.0114576 1.79259 -5.40122e-20)
(-0.0100873 1.80216 2.5762e-20)
(-0.00976296 1.80166 -8.04293e-21)
(-0.0140572 1.79859 -3.83097e-20)
(-0.00922896 1.80558 -1.29607e-20)
(-0.0113843 1.80825 6.30802e-20)
(1.02006 0.00362881 -2.8208e-19)
(1.01393 0.0102174 2.87506e-19)
(1.01442 0.00350267 0)
(0.994837 0.0465313 4.09797e-19)
(0.988705 0.0324616 -4.8858e-19)
(0.96232 0.0278314 5.68254e-19)
(0.993177 0.0852643 -5.49373e-20)
(1.02578 0.0120037 0)
(1.03204 0.0102369 2.52722e-19)
(1.03166 0.00741963 -2.51494e-19)
(1.03271 0.0413858 -1.36666e-20)
(1.0306 0.0265514 1.20181e-19)
(1.02066 0.0472201 0)
(1.01379 0.0419345 -4.4886e-20)
(1.01309 0.0228993 0)
(1.0163 0.0173282 0)
(1.02945 0.00619986 0)
(1.0239 0.00278732 0)
(1.01929 0.0228593 9.23527e-20)
(1.02374 0.015007 -2.10614e-19)
(1.02059 0.0323422 -9.48478e-20)
(1.01975 0.0329494 -1.09379e-19)
(1.01779 0.0457833 1.92167e-19)
(1.05384 0.0445755 0)
(1.04226 0.0853091 0)
(-0.0122409 1.7923 -2.24628e-20)
(-0.0105785 1.78536 -1.82073e-21)
(-0.0114596 1.78534 0)
(-0.00832476 1.79579 2.37069e-20)
(-0.00635016 1.79242 3.19264e-21)
(-0.00527077 1.7944 -3.82828e-21)
(-0.00827283 1.80835 4.79313e-20)
(-0.00776778 1.80537 -2.86094e-21)
(-0.00832671 1.80454 1.38157e-20)
(-0.00570681 1.80587 -2.41099e-20)
(-0.00681147 1.80609 2.82838e-20)
(-0.0137402 1.78373 5.82095e-22)
(-0.0144658 1.78228 2.27829e-20)
(0.123561 1.18581 -4.89306e-19)
(-0.0889305 1.57982 -6.81161e-19)
(0.634144 1.29818 -6.27648e-19)
(0.487782 1.26891 -3.1981e-19)
(0.514654 1.35458 0)
(0.484487 2.17207 1.90502e-19)
(0.680213 2.09042 2.87434e-19)
(0.258855 1.95187 1.06223e-19)
(0.200838 2.28084 -4.21949e-19)
(0.195122 2.34918 4.24058e-19)
(0.392378 2.07997 0)
(0.336429 1.95617 -4.7671e-19)
(0.0982146 1.91057 8.80929e-19)
(0.213007 1.92927 -7.05848e-20)
(0.1746 1.87023 -1.18681e-18)
(0.911063 2.43491 -2.37855e-20)
(0.834704 2.37784 0)
(1.00973 -0.00401713 9.86029e-21)
(1.01292 -0.0118884 -8.14785e-21)
(1.01402 -0.0135325 -1.43578e-19)
(1.02226 -0.0150567 1.46192e-19)
(1.02017 -0.00765703 0)
(0.700822 1.20269 0)
(0.70078 1.16601 0)
(0.765533 1.0596 0)
(0.674393 1.15883 0)
(1.14378 2.594 7.36903e-20)
(1.04215 2.31263 0)
(0.960478 2.15399 9.93528e-22)
(0.904767 2.58749 0)
(1.05629 2.607 8.41448e-20)
(1.07371 2.52321 -5.59602e-20)
(0.830745 0.154518 0)
(0.798907 0.167357 8.39559e-20)
(0.888155 0.122548 4.29439e-19)
(0.852767 0.104021 -1.71836e-19)
(0.856017 0.0652417 -5.15762e-19)
(1.01386 0.214018 -2.62574e-19)
(0.939801 0.249547 -1.69985e-20)
(0.901196 0.244599 3.78348e-19)
(0.963103 0.186749 2.90166e-19)
(0.914481 0.162511 -5.39827e-19)
(0.887905 0.168826 6.93905e-20)
(0.92506 0.219461 -1.35282e-19)
(0.89925 0.186634 0)
(0.969914 0.164962 2.60201e-19)
(0.999798 0.169833 0)
(0.993978 0.190248 0)
(1.04565 0.0967383 8.52932e-20)
(1.01537 0.15736 -1.20699e-20)
(1.00779 0.218222 -4.67581e-20)
(1.04665 0.191217 0)
(1.00799 0.0252315 2.20162e-19)
(1.00939 0.0406779 2.63122e-19)
(1.01185 0.0303108 -2.1792e-19)
(1.00674 0.0450463 -1.76759e-19)
(0.998005 0.0503215 -2.9036e-19)
(0.967079 0.133063 0)
(0.99082 0.0860866 0)
(0.964002 0.0450074 -2.04796e-19)
(0.924517 0.0531182 8.46745e-20)
(0.997542 0.0784932 2.50943e-19)
(1.00952 0.0942653 -2.59735e-19)
(1.0212 0.134898 2.36725e-19)
(1.00435 0.122157 0)
(1.02009 0.0798123 0)
(1.00977 0.0665999 -1.07652e-19)
(1.00925 0.0697619 -2.01765e-19)
(0.552115 1.17886 -3.30932e-20)
(0.552306 1.53803 9.45648e-20)
(1.09336 2.7684 5.53975e-20)
(1.18741 3.10593 -6.95646e-20)
(1.21031 2.71074 4.85859e-19)
(1.24243 2.70306 -3.10487e-19)
(1.168 2.31418 -8.59489e-21)
(1.16954 2.99932 1.70856e-19)
(1.18973 2.95338 -1.64233e-19)
(1.18506 3.25905 -2.63445e-19)
(1.34916 2.97858 3.65189e-19)
(1.34475 2.8939 0)
(0.499557 0.831223 -1.28742e-20)
(0.176213 1.29552 3.68063e-19)
(0.512115 0.550958 3.62295e-19)
(0.343412 0.327605 4.04473e-19)
(0.557677 0.453891 4.09231e-19)
(0.540322 0.50365 -6.47758e-19)
(0.540169 0.528341 5.3033e-19)
(0.516549 0.47417 -2.15489e-19)
(0.489665 0.434122 4.94854e-19)
(0.783824 0.259527 -1.84457e-19)
(0.756133 0.28832 0)
(0.756523 0.255984 1.23001e-20)
(0.677206 0.514604 1.88993e-19)
(0.65679 0.483167 -7.00008e-19)
(0.598833 0.500107 2.06492e-20)
(0.619663 0.47335 0)
(0.620979 0.721631 1.46626e-19)
(0.774784 0.770938 5.7896e-20)
(0.709815 0.82475 -7.58867e-20)
(0.814526 0.803198 -1.84756e-20)
(0.875677 0.831196 1.48407e-20)
(0.882875 0.843912 -1.51789e-20)
(0.779904 0.622166 -2.24637e-19)
(0.857198 0.701485 1.71849e-20)
(0.92846 0.699615 0)
(0.915075 0.662946 -1.90721e-20)
(0.962328 0.28798 6.42137e-20)
(1.0656 0.264577 1.48782e-20)
(1.00126 0.242077 1.07288e-19)
(0.935942 0.326856 -1.45237e-19)
(0.980154 0.404544 0)
(1.04572 0.383723 0)
(0.862162 0.334717 5.13641e-21)
(0.848584 0.279291 0)
(0.847544 0.244631 2.01205e-19)
(0.885066 0.251856 -3.01461e-21)
(0.869008 0.408948 7.81943e-19)
(0.824623 0.472186 1.97286e-19)
(0.82283 0.436155 -2.4956e-19)
(0.760191 0.429641 2.67995e-19)
(0.747554 0.432256 1.82416e-19)
(0.734392 0.424761 -1.78704e-19)
(1.02419 0.00490646 2.37011e-19)
(1.03166 -0.00274988 0)
(1.03096 -0.00803269 1.57167e-19)
(1.02273 -0.00610012 -3.52029e-19)
(1.03621 0.00292148 1.67168e-19)
(1.03157 0.00661592 -3.62839e-19)
(1.0293 0.00555259 0)
(1.02331 0.00833237 -7.51894e-20)
(1.02826 0.00621708 1.89027e-19)
(1.02005 0.0126199 -9.51193e-20)
(1.02127 0.0131774 6.93314e-20)
(-0.0101965 1.77463 0)
(-0.0224018 1.78926 0)
(-0.017844 1.75646 0)
(-0.00864481 1.7598 0)
(-0.0789222 1.75409 -2.39955e-20)
(-0.0805545 1.71275 2.93228e-21)
(-0.126438 1.86551 -2.7676e-20)
(-0.159003 1.73965 -6.9198e-20)
(-0.0372671 1.79288 -4.84813e-20)
(-0.0491342 1.78918 3.4518e-20)
(-0.0595195 1.7587 -5.97119e-21)
(-0.0471912 1.77985 1.0857e-20)
(-0.0325882 1.78135 1.23224e-21)
(-0.0294084 1.78545 -4.51077e-21)
(-0.033776 1.85126 -1.8875e-19)
(-0.0246552 1.88187 0)
(-0.064305 1.87625 1.15596e-19)
(-0.0916508 1.86727 6.68917e-20)
(-0.105556 2.08297 -6.1031e-20)
(0.0414639 2.03704 0)
(0.0120232 2.08903 -4.40616e-19)
(0.0107984 2.20171 3.09452e-19)
(-0.0667207 1.99226 -2.13493e-19)
(-0.0648144 1.9348 1.11542e-19)
(-0.0166837 1.95445 0)
(-0.0285504 1.80869 -1.31002e-19)
(-0.0206773 1.81426 -1.77178e-19)
(-0.020694 1.81322 0)
(-0.0265099 1.82389 -5.2272e-21)
(-0.0368594 1.8217 6.86963e-20)
(-0.0201334 1.79334 5.24617e-21)
(-0.023396 1.79043 -8.59519e-20)
(-0.0248273 1.78972 1.95996e-20)
(-0.0205347 1.79175 3.59857e-20)
(-0.014214 1.79852 0)
(-0.0239225 1.78751 0)
(-0.0168596 1.79393 2.76314e-20)
(-0.0184108 1.78592 -8.78072e-21)
(-0.0238856 1.78692 0)
(-0.0220699 1.79022 2.20078e-20)
(-0.0169611 1.79424 -4.17507e-20)
(1.02471 0.0164958 0)
(1.02656 0.0149097 -2.2494e-20)
(1.02426 0.0148733 -1.69042e-19)
(1.02412 0.0180669 0)
(1.02443 0.0204096 0)
(1.02694 0.00875858 -4.56622e-21)
(1.02732 0.00930755 2.7865e-19)
(1.02379 0.00836406 3.40836e-19)
(1.02288 0.00579269 0)
(1.01911 0.00597359 0)
(1.02135 0.0140473 1.71021e-19)
(1.01862 0.0121925 0)
(1.01954 0.011255 0)
(-0.0119685 1.79367 0)
(-0.0143848 1.78181 2.00924e-21)
(-0.014768 1.78544 1.29225e-20)
(-0.016358 1.78669 0)
(-0.0148579 1.78331 1.79031e-20)
(-0.0130312 1.785 -7.771e-21)
(-0.0133071 1.78444 0)
(0.448463 2.28752 0)
(-0.0813781 1.70834 1.27305e-18)
(0.0249648 2.23667 0)
(0.330381 1.15965 -1.57433e-18)
(0.433798 1.06853 0)
(0.340535 1.14224 6.78646e-19)
(1.08704 2.73239 1.67873e-22)
(0.938898 2.4644 2.99879e-20)
(0.801503 2.15789 3.12621e-19)
(0.885142 2.40334 1.23541e-19)
(0.966124 2.59901 0)
(0.998119 2.54543 0)
(0.877016 2.42631 0)
(0.91519 2.37143 -3.81554e-19)
(0.562999 2.68632 7.64421e-20)
(0.898347 2.63104 1.0997e-20)
(0.900515 2.59259 -9.01896e-21)
(0.593399 2.30718 0)
(0.768525 2.38838 0)
(0.7518 2.26391 -2.54579e-19)
(0.767818 2.65756 0)
(0.596212 1.11676 0)
(0.455083 0.904859 -1.48312e-20)
(0.518906 0.942044 -2.17407e-21)
(0.469034 1.0714 0)
(0.473863 1.028 2.2889e-20)
(0.742478 0.859218 1.42708e-20)
(0.784316 0.980433 0)
(0.755853 0.939237 -6.8043e-20)
(0.616961 1.02417 0)
(0.63196 0.92302 0)
(1.13404 2.73599 -1.53254e-21)
(1.09924 2.81723 3.30703e-20)
(0.90232 2.34501 -1.2147e-19)
(0.882833 2.31113 -2.34996e-21)
(1.10624 2.71208 0)
(1.08939 2.67009 1.37943e-21)
(1.05103 2.44591 -1.26649e-19)
(0.936055 2.1507 -3.11887e-20)
(0.741484 1.47071 0)
(0.667086 1.15904 2.92847e-20)
(0.681005 1.18596 0)
(0.840402 0.201903 0)
(0.811673 0.179546 0)
(0.776284 0.186889 0)
(0.841924 0.206309 -3.16728e-19)
(0.79834 0.21291 1.93461e-19)
(0.925289 0.0509152 -1.68101e-19)
(0.932689 0.0962887 0)
(0.907035 0.09853 8.05835e-20)
(0.884071 0.0654868 3.28994e-19)
(0.886106 0.0586291 -2.02684e-19)
(1.14413 3.38464 -9.73068e-19)
(1.18614 3.30565 0)
(1.15152 3.40927 -1.919e-18)
(0.644687 3.56922 1.64713e-18)
(0.871195 3.13621 4.20539e-19)
(0.493603 0.83771 1.88089e-19)
(0.3963 0.842112 0)
(0.353971 0.561269 -7.91995e-20)
(0.412508 0.674871 3.5594e-19)
(0.509407 0.544031 -1.12523e-19)
(0.495315 0.55974 1.24432e-19)
(0.60747 0.535723 2.66002e-19)
(0.62528 0.551319 0)
(0.587126 0.617175 0)
(0.543468 0.557782 0)
(0.915537 0.576731 -4.55123e-20)
(0.830811 0.516793 -1.90636e-19)
(0.864564 0.558274 9.19904e-20)
(0.892967 0.495045 -1.40035e-19)
(1.00828 0.466386 0)
(1.00499 0.546645 -8.25529e-21)
(0.797254 0.374602 -4.00521e-19)
(0.80737 0.355101 -4.67182e-19)
(0.783695 0.387057 3.13124e-19)
(0.791527 0.346106 -3.56316e-19)
(0.836576 0.290155 -2.49698e-19)
(0.81458 0.292091 3.14172e-19)
(1.03563 0.00436425 -1.69903e-19)
(1.03534 0.00555954 3.52091e-19)
(1.02695 0.00941157 2.24443e-19)
(1.02923 0.0127782 -2.66904e-19)
(1.02467 0.0168488 0)
(1.02848 0.0118047 -4.38862e-19)
(-0.045347 1.81781 2.70479e-20)
(-0.0543702 1.81974 0)
(-0.0613865 1.82555 1.9303e-19)
(-0.0678094 1.85736 -1.7119e-19)
(-0.106476 1.85097 4.95532e-20)
(-0.0865521 1.83851 0)
(-0.0153949 1.79493 0)
(-0.0195107 1.78901 -9.53367e-21)
(-0.0179106 1.78473 8.4911e-21)
(-0.0162059 1.78411 2.2733e-21)
(-0.0138247 1.79212 -1.7494e-20)
(-0.013806 1.79445 1.11212e-20)
(0.815436 1.47226 6.71226e-19)
(0.778259 1.61126 -7.10121e-19)
(0.506624 1.24533 7.84046e-19)
(0.665902 1.60525 -5.43378e-20)
(0.729616 1.15652 0)
(0.584238 1.09056 6.12232e-19)
(0.605014 1.17234 -5.89509e-19)
(0.556182 1.01647 -7.68157e-19)
(0.770209 1.10929 0)
(0.741322 1.18473 0)
(0.438818 2.65003 -1.1757e-19)
(0.558987 2.56024 6.1093e-19)
(0.648954 2.60908 -4.121e-19)
(0.44466 2.57488 -1.64144e-19)
(0.206171 2.65599 1.44689e-19)
(0.232291 2.53431 -4.54343e-19)
(0.939977 2.33204 -1.7976e-19)
(0.976149 2.33384 0)
(0.843982 2.07418 -3.54973e-19)
(1.07001 2.6594 0)
(1.05509 2.65355 0)
(0.61936 2.32887 2.73081e-19)
(1.01209 3.19127 4.79903e-19)
(0.885909 3.06148 -4.62885e-19)
(0.331035 0.971194 0)
(0.353184 0.834859 -1.30593e-19)
(0.473617 0.763571 -5.21961e-20)
(0.41069 2.10341 0)
(0.492304 2.81695 -2.92666e-19)
(0.437124 2.58325 0)
(0.643023 0.664047 -3.03876e-19)
(0.69806 0.680601 3.94334e-19)
(0.735822 0.626436 -3.85861e-19)
(0.604548 0.636528 -4.5802e-20)
(0.657237 0.59384 -1.89266e-19)
(0.963698 2.80173 -3.64558e-19)
(0.998175 2.87347 2.72902e-19)
(0.622959 2.22371 1.23951e-20)
(0.5834 1.78374 -4.73658e-20)
(0.656796 1.99348 9.02591e-20)
(0.954852 2.50158 -7.47562e-20)
(0.961711 2.5197 -1.17781e-19)
(0.661886 1.941 -4.1902e-21)
(0.400847 1.42411 -6.67346e-20)
)
;

boundaryField
{
    wall-4
    {
        type            noSlip;
    }
    velocity-inlet-5
    {
        type            fixedValue;
        value           uniform (1 0 0);
    }
    velocity-inlet-6
    {
        type            fixedValue;
        value           uniform (0 3 0);
    }
    pressure-outlet-7
    {
        type            zeroGradient;
    }
    wall-8
    {
        type            noSlip;
    }
    frontAndBackPlanes
    {
        type            empty;
    }
}


// ************************************************************************* //
