/*--------------------------------*- C++ -*----------------------------------*\
| =========                 |                                                 |
| \\      /  F ield         | OpenFOAM: The Open Source CFD Toolbox           |
|  \\    /   O peration     | Version:  4.0                                   |
|   \\  /    A nd           | Web:      www.OpenFOAM.org                      |
|    \\/     M anipulation  |                                                 |
\*---------------------------------------------------------------------------*/
FoamFile
{
    version     2.0;
    format      ascii;
    class       volScalarField;
    location    "20";
    object      p;
}
// * * * * * * * * * * * * * * * * * * * * * * * * * * * * * * * * * * * * * //

dimensions      [0 2 -2 0 0 0 0];

internalField   nonuniform List<scalar> 
918
(
0.211077
0.893578
0.0102385
0.209986
-0.0013466
0.860698
-0.853409
0.388655
0.191092
-0.474125
-0.0799393
0.180132
0.721116
0.488193
-1.48098
0.00398128
0.344128
-0.735158
0.189775
-0.0032974
0.465321
0.197842
0.200843
0.191409
0.250766
0.478575
0.60155
0.00178664
-0.00100805
-0.00440036
0.00500541
-0.00723801
-0.00236604
0.744332
0.795429
0.818085
0.160056
-0.0129129
-0.703244
-0.780757
-0.764108
-0.904562
0.376863
0.381889
-0.505066
0.391156
0.407025
0.178694
0.19034
0.191161
0.192637
0.191456
0.192888
0.155338
-0.474207
-0.497302
-0.458454
-0.445861
-0.0989327
-0.116397
-0.163099
-0.0533823
-0.0386717
0.116591
0.177062
0.175526
0.185368
0.195147
0.833125
0.805022
0.831159
0.744871
0.761381
0.69907
0.671561
0.508336
0.529454
0.473317
0.463477
-1.92486
-2.89962
-0.878338
-0.618852
0.000644434
0.00449775
0.00513142
0.330428
0.338046
0.342126
0.355136
0.732941
-0.718515
-0.86397
0.189904
0.188562
0.197157
0.19782
0.193808
0.192913
0.00650092
0.0108832
-0.0145886
-0.0025571
-0.00706567
0.448669
0.442711
0.191952
0.189011
0.202932
0.22544
0.214018
-0.0401251
0.261429
0.282774
0.28425
0.461626
0.458524
0.466382
0.57502
0.537742
0.638996
0.662285
0.0136558
0.0038575
-0.00370638
-0.00115036
-0.00344123
0.156235
0.149303
0.173084
0.163712
0.165864
-0.0966148
-0.23172
0.0708086
0.094249
-0.611173
-0.678655
-0.7867
-0.800734
-0.915023
0.212196
0.366633
0.369094
-0.523178
-0.438616
-0.5853
-0.363831
-0.434875
0.169429
0.17613
0.171339
0.186224
0.180871
0.182791
0.194469
0.19155
0.193151
0.183843
0.297769
0.0898787
0.0296068
-0.602171
-0.50086
-0.588091
-0.434403
-0.386333
-0.0973251
-0.106075
-0.109499
-0.0599574
-0.347655
-0.22193
-0.286597
-0.0216649
-0.0150011
0.109545
0.100661
0.126288
0.132487
0.168897
0.169772
0.172955
0.17082
0.622314
0.644637
0.652166
0.625987
-3.9128
-6.73969
-0.284082
-0.140455
0.00209737
0.00309288
0.00223356
0.00544553
0.00302295
0.00083418
-0.0130152
-0.00748803
0.00465466
0.00173671
0.316182
0.320294
0.651842
0.651075
0.642538
0.617949
0.177859
0.179947
0.185509
0.181404
-0.00113876
0.00999256
0.00360212
0.409661
0.428908
0.425805
-0.0757156
-0.162868
0.00658174
0.0332995
0.303056
0.287636
0.3045
0.347389
0.384514
0.669706
0.688044
0.68633
0.694845
0.738918
0.755359
0.720606
0.137141
0.145546
0.141059
0.176875
0.1744
0.175463
0.169535
0.171849
0.168838
-0.38564
-0.772495
0.163835
0.177025
0.137514
0.146247
0.3009
0.373414
0.350227
0.358089
0.36269
-0.300285
-0.365287
0.00197805
-0.0247225
0.058524
0.089841
0.0737756
0.593337
0.554076
0.603931
0.577429
0.538929
0.564534
-0.724208
-2.25625
-1.35615
0.224557
0.029778
0.120956
-0.0360703
-0.0360859
-0.0267329
0.63087
0.7103
0.347234
0.503054
0.524081
0.426268
0.458168
0.510485
0.43495
0.470114
0.506693
0.489468
0.170593
0.167021
0.148253
0.443803
0.499312
-0.188718
-0.238318
-0.293128
-0.106101
-0.0581152
-0.0859524
0.681527
0.565171
0.644355
0.18884
0.189501
0.0111068
0.015696
0.193241
0.193097
0.0061792
0.0043054
0.101958
-1.1926
-0.197164
0.181541
0.1724
0.188989
-0.457364
0.0365936
-0.119708
-0.0649823
0.0748916
0.179329
0.126441
0.0933232
0.00524933
0.0132983
-0.0078825
-0.535386
0.186472
0.184815
0.188571
0.189621
0.190283
0.00526827
0.00679709
0.0046709
-0.00264891
0.00115756
-0.0014749
0.154607
0.169098
-0.503104
0.188514
0.190759
0.190389
0.183444
0.189017
0.187362
0.0111171
0.00553177
0.000282734
-0.0888102
0.0255997
0.359724
0.468148
0.312826
0.0840411
-0.160709
0.254906
0.324254
0.220854
0.388473
0.352962
0.376743
-0.137151
-0.282994
-0.127659
-0.183534
0.179473
0.178107
0.170679
0.168012
0.184152
0.182277
0.186534
0.183462
0.186254
0.187926
-0.477866
-0.441542
-0.442718
-0.475422
-0.0161735
0.263495
-0.100297
0.0143978
-0.114619
-0.0921745
-0.0620066
-0.190187
-0.23262
-0.194445
0.0272256
-0.0131559
-0.0899945
0.0673984
-0.00922452
-0.144797
-0.0269379
-0.0892273
0.173624
0.170432
0.17925
0.185901
0.134337
0.135842
0.108688
0.124674
0.112911
0.0574373
0.0906747
0.068488
0.00703411
0.00731609
0.00573469
0.0166415
0.0125307
0.00756513
0.00850483
0.0117895
0.00306885
0.00474322
-0.00542925
0.00345111
-0.506441
-0.624235
0.63673
0.615228
-0.187277
0.175691
0.182114
0.178943
0.183654
0.186652
0.187443
0.185304
0.181857
0.170098
0.172191
0.168225
0.168767
-0.446361
-0.579674
-0.402303
-0.464049
-0.20595
0.293905
0.0382255
-0.0210656
-0.0249145
0.184332
0.577861
0.387334
0.420499
0.447927
-0.69137
-0.28821
-0.621035
-0.00289633
-0.183934
0.356984
0.410424
0.435084
0.379878
0.328149
-0.459332
0.185128
-0.38
-0.338639
-0.151213
-0.248806
0.406175
0.337549
0.343025
0.367689
0.392326
0.343315
0.321952
0.319891
0.356857
0.360805
0.158626
-0.0566197
-0.102348
-0.138039
0.326234
0.198237
0.253564
0.172317
0.174041
0.177111
0.175581
0.15903
0.166225
0.162119
0.167081
0.169946
0.179723
0.179627
0.175261
0.177532
-0.43842
-0.44061
-0.430641
-0.468532
-0.472156
-0.535487
-0.420014
-0.289071
-0.380359
-0.0578388
0.00813822
-0.284385
-0.416503
-0.376528
-0.360263
-0.135114
-0.0984577
-0.478087
-0.12292
-0.343632
-0.378632
-0.0999297
-0.0432856
-0.1924
-0.259095
-0.334085
-0.228595
-0.126954
-0.168811
-0.182104
-0.0188313
-0.0643741
-0.0475309
-0.0209458
-0.400929
-0.389439
-0.358531
-0.505414
0.0110129
0.0131571
0.013088
0.00416078
0.0132775
0.00811246
0.167998
0.167949
0.16761
0.181942
0.193856
0.209118
0.175714
0.153353
0.145571
0.147437
0.123961
0.131876
0.128844
0.140761
0.157997
0.165933
0.164925
0.167207
0.151683
0.152524
0.142145
0.14588
0.124875
0.107732
0.098109
0.00916494
0.00703879
0.00782334
0.00720852
0.0101597
0.0103618
0.0218698
0.017943
0.0190642
0.016902
0.00537788
0.0135149
0.00972078
-0.426742
-0.355457
-0.530602
-0.566924
-0.63367
0.552717
0.660663
0.495817
0.264547
0.271509
0.490684
0.589239
0.249228
0.425906
0.462285
0.173663
0.460433
0.180356
0.179626
0.177315
0.176863
0.178108
-0.353381
-0.254325
-0.242912
-0.191551
-0.07575
0.03768
-0.0412768
-0.178123
-0.0326448
-0.015609
0.288459
0.302267
0.246723
0.27345
0.273407
0.0999079
0.173972
0.228758
0.185197
0.226164
0.248211
0.211673
0.240156
0.186908
0.146996
0.146226
0.0943897
0.113525
0.0913488
0.0744712
0.169734
0.149852
0.158419
0.151924
0.170342
0.198905
0.193341
0.216522
0.230004
0.157359
0.120032
0.127885
0.154256
0.119521
0.131661
0.145389
-0.139184
-0.238694
-0.151424
-0.447747
-0.352982
-0.368497
-0.414393
-0.379608
-0.0929518
-0.799123
-0.762564
-1.40113
0.121962
0.608397
0.358387
0.329104
0.390339
0.366237
0.368695
0.403093
0.409111
0.316432
0.328222
0.334679
0.286263
0.31121
0.343122
0.338423
0.166138
0.050088
0.0379865
0.00577905
-0.113596
-0.0841965
0.115218
0.0390334
-0.0311934
-0.0240616
0.134517
0.0296819
0.091484
0.128771
0.0615679
0.0206471
0.214804
0.284202
0.274622
0.246257
0.161945
0.174485
0.198618
0.235328
0.261568
0.295019
0.1675
0.172771
0.173895
0.171601
0.169248
0.17166
0.171488
0.174125
0.175053
0.177715
0.176801
-0.310217
-0.360969
-0.421281
-0.360409
-0.555093
-0.537833
-0.427432
-0.444791
-0.468861
-0.541044
-0.546162
-0.496509
-0.446466
-0.425667
-0.371631
-0.288267
-0.263099
-0.354031
-0.0547144
0.0725286
0.128495
0.011922
-0.0878052
-0.0776755
-0.0488111
-0.378056
-0.208841
-0.241446
-0.23562
-0.388874
-0.0815254
-0.0679298
-0.0742548
-0.0758503
-0.11312
-0.04785
0.00210665
-0.00591144
-0.0164264
-0.00658397
0.00154344
0.157449
0.150721
0.148367
0.144807
0.144456
0.153628
0.158382
0.161159
0.166674
0.167175
0.158616
0.16311
0.165895
0.0159995
0.0111666
0.0156319
-0.000998118
0.00619544
0.0106019
0.00305526
-0.246074
-0.293311
-0.292833
-0.33922
-0.471144
-0.409936
0.125839
0.0966275
0.134442
0.330747
0.185853
0.105329
0.175651
0.28428
-0.0930432
0.103708
-0.0637443
0.529348
0.413904
0.553805
0.180505
-0.11932
0.0213381
0.0776768
-0.116721
-0.0460745
-0.0221506
-0.131824
-0.0982784
-0.0702159
0.0282954
-0.0905958
-0.120851
-0.362596
-0.176259
-0.051773
-0.0730538
0.0556354
0.11729
-0.100623
-0.18447
-0.227253
0.277349
0.296168
0.313295
0.28512
0.309307
0.233965
0.2261
0.244086
0.254947
0.248246
-1.13404
-0.846241
-1.78562
-1.0957
-0.653468
0.149908
0.106572
0.396028
0.291484
0.373599
0.357013
0.317643
0.279612
0.287585
0.325771
0.0290727
0.134523
0.109441
0.116971
0.0230431
-0.0409991
0.249201
0.244187
0.279059
0.302899
0.27317
0.304313
0.165532
0.164842
0.165097
0.161737
0.160687
0.161491
-0.509241
-0.545476
-0.444902
-0.425878
-0.45699
-0.502663
0.0207541
-0.00537642
-0.00428897
0.000340405
0.0268332
0.0209892
-0.201247
-0.262625
-0.326747
-0.308924
-0.355855
-0.423244
-0.440106
-0.33778
-0.245983
-0.257856
0.047235
0.299212
0.12236
0.297448
0.137983
0.19883
0.135967
0.124168
0.160074
0.0275154
0.10472
-0.167257
-0.660144
-0.569996
0.408495
0.430149
0.211178
0.0155252
-0.206574
-0.00715345
0.19657
0.137511
0.177003
0.244696
0.238614
-0.368895
-0.289694
-0.0680469
0.159912
-0.137488
-0.14197
-0.145867
0.0124886
-0.0536359
)
;

boundaryField
{
    wall-4
    {
        type            zeroGradient;
    }
    velocity-inlet-5
    {
        type            zeroGradient;
    }
    velocity-inlet-6
    {
        type            zeroGradient;
    }
    pressure-outlet-7
    {
        type            fixedValue;
        value           uniform 0;
    }
    wall-8
    {
        type            zeroGradient;
    }
    frontAndBackPlanes
    {
        type            empty;
    }
}


// ************************************************************************* //
