/*--------------------------------*- C++ -*----------------------------------*\
| =========                 |                                                 |
| \\      /  F ield         | OpenFOAM: The Open Source CFD Toolbox           |
|  \\    /   O peration     | Version:  4.0                                   |
|   \\  /    A nd           | Web:      www.OpenFOAM.org                      |
|    \\/     M anipulation  |                                                 |
\*---------------------------------------------------------------------------*/
FoamFile
{
    version     2.0;
    format      ascii;
    class       volVectorField;
    location    "20";
    object      U;
}
// * * * * * * * * * * * * * * * * * * * * * * * * * * * * * * * * * * * * * //

dimensions      [0 1 -1 0 0 0 0];

internalField   nonuniform List<vector> 
918
(
(0.985146 -0.000536839 0)
(0.0050027 2.96626 0)
(-0.014542 1.58428 0)
(0.97969 0.00216499 0)
(-0.0037139 1.56263 6.1943e-21)
(-0.00703353 2.94878 -1.82619e-18)
(0.85668 1.20183 7.50355e-19)
(0.424007 0.192554 -8.51779e-21)
(0.999906 -0.000330242 0)
(0.0614606 0.790876 0)
(-0.0393873 1.10022 0)
(0.770329 -0.0106425 0)
(0.0111264 2.93035 0)
(0.00152756 2.79496 0)
(-0.0178286 3.16781 1.10444e-18)
(-0.00373923 1.45472 -3.97604e-21)
(0.54823 0.0879726 5.318e-19)
(0.195529 1.19658 6.66092e-19)
(0.96292 0.00511682 0)
(0.00225396 1.31783 0)
(0.141406 0.251254 -4.60338e-19)
(1.00207 -0.00500121 0)
(1.00024 -0.00973962 0)
(0.975776 -0.00645099 0)
(0.683126 -0.0363973 0)
(0.0178185 2.63196 0)
(-0.0151656 2.91021 6.26747e-19)
(-0.025919 1.6037 0)
(-0.0306546 1.7365 0)
(-0.0265645 1.59747 0)
(-0.00572931 1.8427 0)
(0.000163951 1.58839 -4.89981e-21)
(-0.00391484 1.46788 0)
(-0.0206188 2.98759 -6.36976e-23)
(-0.016703 3.0053 1.41947e-18)
(0.00210415 3.0002 0)
(0.870417 -0.00897097 0)
(0.392759 0.929042 -4.438e-20)
(0.838771 1.21846 -1.05876e-18)
(0.985751 1.05659 9.89393e-19)
(0.705239 1.31368 -1.74134e-19)
(0.701584 1.3008 9.79905e-19)
(0.455693 0.276395 8.31054e-21)
(0.44852 0.177184 0)
(1.16641 0.563558 0)
(0.42591 0.291094 3.91405e-20)
(0.386261 0.195709 -4.06162e-20)
(0.919468 -0.00751568 0)
(1.00031 5.46151e-05 0)
(0.999912 0.000303631 0)
(1.00348 -0.00777729 0)
(1.00094 -0.0010729 0)
(1.00017 -1.51246e-05 0)
(0.021588 1.77886 -2.83956e-19)
(0.0534039 0.926632 0)
(0.0765735 0.891712 0)
(0.000217233 0.849931 0)
(0.00609652 0.736532 0)
(0.034001 1.52875 0)
(-0.0543675 1.17006 0)
(-0.0539458 0.97605 0)
(-0.0338888 1.28943 0)
(-0.0233977 1.18802 0)
(0.848998 -0.00242213 0)
(0.866535 0.00970089 0)
(0.781775 -0.00401381 0)
(0.860204 0.0155098 0)
(0.755641 -0.011687 0)
(0.0147011 3.0004 6.67684e-19)
(0.0115219 3.00792 0)
(0.00613107 3.00284 0)
(0.0135479 2.99734 7.4303e-24)
(0.00799235 2.95846 -9.92343e-19)
(0.0144975 2.98207 0)
(0.0108163 2.9036 0)
(0.0247308 2.93043 1.31655e-24)
(0.00424487 2.82535 0)
(0.0316124 2.91572 0)
(-0.00615538 2.74404 0)
(0.311375 3.56821 0)
(-0.132499 3.65046 0)
(0.141053 3.25871 -1.02785e-18)
(-0.0112537 2.99103 0)
(-0.0206332 1.81904 0)
(0.00355772 1.61928 3.92213e-21)
(-0.00366448 1.46375 -4.47003e-21)
(0.597085 0.150437 -1.82704e-19)
(0.540094 0.0514701 -1.78673e-19)
(0.584118 0.185952 -5.52283e-19)
(0.531699 0.117429 -3.70222e-19)
(0.210472 0.894381 0)
(0.275967 1.34564 -6.77582e-19)
(0.39449 1.29665 1.11358e-18)
(0.987512 0.00843438 0)
(0.94262 0.00597304 0)
(1.00029 0.000548812 0)
(1.00289 0.0092676 0)
(1.00307 0.00847595 -9.82817e-19)
(0.991966 0.00968712 7.42154e-19)
(-0.011063 1.4791 0)
(-0.00293346 1.30444 0)
(-0.0345205 1.6092 0)
(-0.0227817 1.5165 0)
(-0.00384813 1.35395 0)
(0.210631 0.264337 1.41935e-19)
(0.257435 0.241965 0)
(0.993571 -0.00825522 0)
(0.954404 -0.00643842 0)
(0.829611 0.0235499 0)
(0.796784 0.0356658 0)
(0.734391 -0.0267494 0)
(0.995616 -0.00423586 0)
(0.739916 0.0510161 0)
(0.595269 -0.0156049 7.03834e-19)
(-0.0356733 2.86545 3.05425e-19)
(0.0430534 2.90807 0)
(0.0568062 2.88329 0)
(-0.00560455 2.69693 0)
(-0.0128796 2.98535 5.73695e-19)
(-0.0182444 2.89556 0)
(-0.0153473 2.98812 -1.82005e-18)
(-0.0133915 2.92525 6.29435e-19)
(-0.0266488 1.81351 0)
(-0.0217479 1.81124 0)
(0.000449199 1.60971 5.18387e-23)
(0.00114816 1.58428 0)
(-0.00545595 1.46419 0)
(0.935626 -0.00582862 0)
(0.854066 -0.00928364 0)
(0.863954 0.00871754 0)
(0.948504 -0.00694956 0)
(0.883878 -0.00802001 0)
(0.506448 1.1249 4.41835e-20)
(0.558498 1.18063 0)
(0.352481 0.866572 2.5324e-21)
(0.295775 0.728525 0)
(0.945953 1.09256 -2.8639e-19)
(1.05799 0.891836 5.86605e-19)
(0.39644 1.39905 0)
(0.557115 1.37875 0)
(0.559785 1.32769 0)
(0.095391 0.142049 -1.18722e-19)
(0.49693 0.261166 0)
(0.4817 0.16173 1.0583e-19)
(1.02691 0.943757 0)
(1.09196 0.785658 0)
(1.11807 0.728156 -5.13626e-19)
(1.14642 0.622571 0)
(1.19795 0.404905 5.83689e-20)
(0.956867 -0.00885977 0)
(0.962123 -0.0101764 0)
(0.900854 -0.0081025 0)
(0.984226 -0.00911895 0)
(0.974558 -0.00935669 0)
(0.936857 -0.0062285 0)
(1.00019 0.00229294 0)
(1.00086 0.0013237 0)
(0.999923 0.000858597 0)
(-0.0160394 2.03082 1.68263e-19)
(0.116914 1.71496 0)
(-0.0605025 2.02976 1.77322e-19)
(-0.0109089 1.81225 -7.15829e-20)
(0.126441 1.19168 -5.52516e-19)
(0.071846 1.03963 0)
(0.116553 1.03596 0)
(-0.0118677 0.84506 0)
(-0.0267995 0.755944 0)
(0.0473333 1.7206 1.1793e-21)
(-0.0323146 1.55884 0)
(0.0599714 1.71024 7.38183e-20)
(0.00634647 1.51056 -1.15362e-19)
(-0.0451405 0.900802 0)
(-0.0630827 1.02964 0)
(-0.0479131 0.848305 0)
(-0.0228405 1.37853 0)
(-0.0131855 1.24206 0)
(0.937852 0.0154498 0)
(0.871466 1.57276e-05 0)
(0.919988 0.00747188 0)
(0.839439 -0.00533265 0)
(0.8099 0.0050413 0)
(0.901757 0.0138167 0)
(0.882947 0.00987676 0)
(0.788378 0.00186339 0)
(0.00575043 3.06471 -5.83105e-21)
(0.0164493 3.05809 0)
(0.0146821 2.96914 0)
(0.0084782 2.87632 0)
(0.929495 3.9884 0)
(1.24518 3.31775 1.02023e-18)
(0.0713728 3.08319 0)
(-0.0264924 2.91145 0)
(-0.0259022 1.80206 0)
(-0.0274671 1.81343 0)
(-0.0242374 1.80597 0)
(-0.0099606 1.83095 4.90912e-21)
(-0.019249 1.82924 0)
(-0.0155273 1.82637 0)
(-0.000132255 1.48552 -1.25626e-20)
(0.00767772 1.66974 -9.06661e-21)
(0.00316111 1.63852 4.66035e-21)
(-0.00545543 1.47189 0)
(0.624102 0.123554 2.68637e-19)
(0.557858 0.023218 -2.61251e-19)
(0.266061 1.51933 0)
(0.26258 0.658334 -2.03867e-19)
(0.200512 1.6173 -6.92154e-19)
(0.239582 1.16575 6.94194e-19)
(0.90418 0.0069182 0)
(0.967902 0.0106662 0)
(0.974971 0.0105132 0)
(0.924639 0.00664382 0)
(-0.018377 1.43597 0)
(-0.0148136 1.46564 0)
(-0.00813414 1.27395 0)
(0.384671 0.297792 3.62941e-19)
(0.326708 0.279974 -4.44126e-19)
(0.333636 0.216922 0)
(1.1188 0.0842676 -5.6234e-21)
(1.10425 0.0386497 0)
(1.03177 0.0382339 0)
(0.936148 0.00527138 0)
(0.649764 0.0926199 0)
(0.680541 0.0669462 -1.13367e-18)
(0.573696 0.00711306 4.341e-19)
(0.00977526 2.98179 3.96802e-19)
(-0.0326911 2.8674 4.7744e-20)
(0.00381786 3.05016 -1.26277e-20)
(0.0199955 3.04355 4.55046e-19)
(-0.0150244 2.99655 2.09591e-20)
(-0.0130013 2.94946 -8.49092e-23)
(-0.01728 3.01199 -3.98581e-19)
(0.0148025 3.02402 2.88024e-19)
(0.00729276 3.03672 -4.49389e-19)
(0.923328 0.00133742 0)
(0.93194 -0.00165689 0)
(0.840048 -0.00729992 0)
(0.957405 0.0118092 0)
(0.943968 0.0134372 0)
(0.883321 0.00769847 0)
(0.917746 0.0141181 0)
(0.927487 0.0145549 0)
(0.838202 0.00789437 0)
(0.715251 1.41118 3.45173e-19)
(0.751268 1.52295 0)
(0.222395 0.367447 2.34981e-20)
(0.179563 0.581312 1.88367e-19)
(0.264873 0.68752 -1.0246e-19)
(0.2263 0.572235 1.85955e-19)
(0.285175 0.693984 6.87626e-19)
(0.105897 0.179457 2.04713e-19)
(0.558354 0.22077 3.98793e-19)
(0.526595 0.241958 9.81077e-20)
(0.5062 0.143916 2.01051e-19)
(1.18698 0.461815 3.11725e-19)
(1.20411 0.256334 3.26527e-19)
(-0.0244426 1.9933 1.4781e-20)
(-0.019023 1.76252 0)
(0.982779 0.0279153 0)
(0.950802 0.0186102 0)
(0.896773 -0.00175368 0)
(0.0110458 3.07469 0)
(0.0199192 2.94404 7.74686e-19)
(0.0165433 2.95646 0)
(0.00608846 2.8508 -7.68537e-19)
(0.0060241 3.09108 1.82961e-19)
(0.00739667 3.08254 0)
(0.785271 1.82878 -2.4395e-19)
(1.2522 2.51353 6.73317e-19)
(0.768343 1.97049 -1.50929e-18)
(0.021232 2.98428 -2.83258e-19)
(0.0373338 3.00755 0)
(-0.0319579 2.88264 0)
(0.0487159 1.68708 1.44471e-20)
(0.0221132 1.70173 4.9169e-20)
(0.0206836 1.49856 -1.8819e-23)
(0.279062 1.33099 6.59125e-19)
(0.224392 0.442441 -4.54264e-19)
(0.0331562 1.95141 4.50861e-19)
(0.134023 1.83085 -5.67735e-19)
(0.200525 1.48446 8.33529e-20)
(0.00186731 3.11886 -1.07127e-18)
(0.0161784 3.11805 1.14795e-18)
(-0.00858393 2.98138 4.93182e-19)
(-0.00304134 2.97796 -4.32399e-19)
(-0.0212571 2.88222 -5.02291e-19)
(0.00884482 3.09992 -1.33869e-18)
(0.00260113 3.10578 1.30348e-18)
(0.219542 0.610027 0)
(0.168583 0.593337 -3.65414e-19)
(0.123769 0.202325 1.62625e-19)
(0.318296 0.817838 6.15696e-19)
(0.170754 0.221854 -9.42878e-19)
(1.2014 0.170831 -6.4995e-20)
(1.20404 0.308419 0)
(1.18981 0.119088 1.30013e-19)
(0.000740863 1.80435 1.95681e-21)
(-0.0403698 1.90215 0)
(-0.035899 1.65892 0)
(0.32821 1.21241 -2.40768e-19)
(0.351063 1.02926 -5.10396e-19)
(0.191861 0.3173 8.73524e-19)
(1.00583 -0.0110862 0)
(1.00759 -0.00763246 1.79373e-19)
(-0.0277135 1.79935 0)
(-0.0361624 1.80621 0)
(1.00218 0.00335356 1.59734e-21)
(1.00367 0.00932862 3.68924e-19)
(-0.010032 1.83697 -6.65772e-21)
(-0.00495626 1.83679 0)
(0.0396797 3.1839 9.32027e-20)
(0.40066 3.50346 0)
(1.11564 0.645193 7.23767e-20)
(1.01294 0.0127403 -2.1191e-21)
(1.02136 -0.0105105 0)
(1.00172 -2.16838e-05 -3.02222e-23)
(0.155354 1.18569 0)
(0.17458 2.60986 0)
(-0.214846 1.37146 0)
(-0.192137 2.39096 -8.66361e-20)
(-0.103996 2.06996 5.41732e-20)
(1.00586 0.01064 2.96863e-21)
(1.0483 0.0117434 0)
(1.07319 0.0302105 0)
(-0.0283297 1.81669 0)
(-0.0231916 1.87522 0)
(-0.0350439 1.76873 0)
(0.280917 1.44888 -4.59459e-19)
(1.01108 -0.00958478 0)
(1.00949 -0.015352 0)
(1.00235 0.000390754 2.26067e-19)
(1.0055 -0.00499779 -2.69912e-19)
(1.00123 -0.00109526 0)
(-0.0339669 1.80783 0)
(-0.0295499 1.79703 0)
(-0.0299971 1.80284 0)
(-0.0323067 1.77169 0)
(-0.0296456 1.77868 0)
(-0.0315641 1.77702 0)
(1.03161 -0.0141307 0)
(1.0208 0.0167177 -9.68614e-22)
(0.783308 1.26672 5.38616e-19)
(1.00266 0.000232182 -2.28549e-19)
(1.00347 0.00550209 2.6907e-19)
(1.00129 0.00218456 0)
(1.01302 0.0101898 2.21302e-19)
(1.00827 0.00834311 -2.76191e-19)
(1.00861 0.0143317 0)
(-0.020964 1.87349 0)
(-0.0115326 1.85356 5.24007e-21)
(-0.0103622 1.85399 -2.48581e-21)
(1.18845 0.254385 -1.11676e-19)
(1.1272 0.0899073 0)
(0.0535313 3.07772 -4.91029e-19)
(0.0685843 2.8508 -3.97808e-20)
(0.147693 3.19769 7.72148e-19)
(0.141756 3.22689 1.16222e-20)
(0.139869 3.24299 0)
(0.0222914 3.13869 1.04018e-19)
(0.0811437 3.16237 4.78143e-19)
(0.0737533 3.1899 -2.01777e-19)
(0.0258726 3.12863 0)
(0.666877 0.327059 0)
(0.612327 0.367469 0)
(1.08841 0.671471 -2.72203e-19)
(1.08535 0.81254 4.16035e-19)
(1.14564 0.561882 0)
(1.17649 0.504555 0)
(1.01588 0.0130595 -4.07937e-19)
(1.01436 0.0139235 5.09461e-19)
(1.02512 -0.010471 0)
(1.02321 -0.0118957 0)
(1.00672 0.00285006 0)
(1.01026 0.0032492 0)
(1.00503 0.00159718 0)
(1.00974 0.00563017 0)
(1.00836 0.00628224 0)
(1.00439 0.0047942 0)
(0.176182 1.18698 0)
(0.0978079 1.01086 0)
(0.220046 1.2672 0)
(0.143128 1.2857 0)
(0.165413 2.62204 0)
(0.208289 2.64924 -1.94784e-19)
(0.0771131 2.69447 0)
(0.0782089 2.68481 -3.41329e-20)
(-0.16272 2.67861 1.68981e-19)
(-0.174571 1.41641 0)
(-0.148483 1.46679 0)
(-0.220874 1.32908 0)
(-0.178742 1.19094 0)
(-0.405148 2.12356 1.31942e-19)
(-0.161154 2.17425 -2.93294e-21)
(-0.180003 2.37411 -5.65454e-20)
(-0.114816 2.25975 0)
(-0.0970637 2.06699 -9.46793e-20)
(-0.0643461 2.02198 -9.28454e-21)
(-0.423691 2.10176 -1.26528e-19)
(-0.269621 2.1183 3.82605e-21)
(-0.271848 2.25595 7.42419e-20)
(1.01565 0.0225685 4.02429e-19)
(1.01277 0.00858262 -4.92219e-19)
(1.00765 0.0215673 -4.22484e-19)
(0.992084 0.0130184 5.36549e-19)
(1.04831 0.0123431 0)
(1.03501 -0.00712386 0)
(1.07002 0.0393814 0)
(1.05471 0.0203788 0)
(1.05388 0.0140926 0)
(1.11057 0.0783013 0)
(1.08338 0.0479803 0)
(1.08704 0.0382976 0)
(-0.0192124 1.84121 -1.43725e-21)
(-0.030177 1.83139 0)
(-0.0228973 1.83123 0)
(-0.0368295 1.90112 9.50356e-21)
(-0.031061 1.90947 -2.01319e-22)
(-0.0509327 1.81562 9.47797e-21)
(-0.03952 1.81008 -9.57852e-21)
(-0.044478 1.78597 0)
(-0.0378997 1.79661 0)
(-0.0375721 1.79654 0)
(-0.048204 1.75403 0)
(-0.0338198 1.71733 0)
(0.383576 1.47288 8.85946e-19)
(0.409013 1.48064 3.47905e-19)
(0.580321 2.42601 -1.47791e-19)
(0.397987 2.51324 4.18986e-19)
(0.33936 2.08629 -4.04462e-20)
(1.02072 -0.008404 0)
(1.01511 -0.00978477 0)
(1.01495 -0.0158451 0)
(1.00731 -0.00115385 0)
(1.00467 -0.00158089 0)
(1.00744 -0.00474894 0)
(1.0096 -0.00403513 0)
(1.01351 -0.00448789 0)
(1.02238 0.0169522 3.84734e-19)
(1.01729 0.0160017 -4.94612e-19)
(1.02373 0.0209571 -3.93353e-19)
(1.01709 0.0217372 4.9297e-19)
(0.758401 1.31233 0)
(0.688294 1.37173 6.4206e-19)
(0.858754 1.20422 3.76231e-19)
(0.899862 1.16085 -5.00353e-19)
(1.14691 2.61509 -5.93177e-19)
(0.835327 0.110399 2.73921e-19)
(1.12659 0.0998257 0)
(1.17267 0.179164 9.48819e-20)
(1.15917 0.156716 4.13578e-21)
(0.979567 0.12266 0)
(0.148516 2.96756 1.03829e-19)
(0.126012 2.87345 -6.32916e-19)
(0.0389919 2.35475 4.62454e-19)
(0.103908 0.103389 -1.92582e-19)
(0.345014 3.43147 -4.56768e-19)
(0.198944 3.32233 0)
(0.240375 3.36716 5.94856e-19)
(0.256057 3.04096 -6.80483e-19)
(0.350397 3.20054 0)
(0.00738732 3.12072 2.50358e-20)
(0.0173298 3.12979 -3.23535e-19)
(0.0157691 3.12567 4.76199e-19)
(0.0383082 3.14014 0)
(0.0370718 3.15176 0)
(1.2134 2.61787 0)
(0.506954 0.85332 -2.16825e-19)
(1.01684 0.990387 -2.13845e-19)
(0.952937 1.05341 0)
(0.796675 0.950386 6.42618e-20)
(1.03795 0.861094 3.07757e-20)
(0.407856 0.463978 -5.1936e-19)
(0.702963 0.336103 -2.23713e-20)
(0.688514 0.27917 2.11035e-19)
(0.621536 0.40189 1.70391e-20)
(0.559349 0.392807 -7.03187e-19)
(0.678469 0.358363 0)
(0.714486 0.421583 3.40015e-19)
(0.711813 0.419022 0)
(0.649681 0.384791 0)
(0.631498 0.328855 0)
(0.759264 0.587333 1.14633e-19)
(1.18732 0.270348 7.66731e-20)
(1.1832 0.40176 0)
(1.1951 0.357133 0)
(0.764728 0.203968 3.19055e-19)
(0.81594 0.514798 -1.71939e-19)
(0.736885 0.490426 2.76872e-19)
(0.912981 0.416064 -2.51631e-19)
(1.01942 0.0144902 2.66398e-19)
(1.01753 0.0138286 -2.74754e-19)
(1.0146 0.0157953 0)
(1.03335 -0.0111084 0)
(1.02884 -0.00962959 -2.44139e-19)
(1.02593 -0.0138825 2.41413e-19)
(1.02678 0.00742107 0)
(1.02502 0.0137976 0)
(1.01147 0.00427356 0)
(1.01427 0.00902913 0)
(1.01532 0.00390642 0)
(1.01372 0.00203119 0)
(0.0678663 1.00244 0)
(-0.0280636 0.969107 0)
(0.321906 1.31085 4.72226e-19)
(0.272815 1.4485 2.6862e-19)
(0.199692 1.40644 6.01515e-19)
(0.211631 1.40919 -9.46885e-19)
(0.284852 1.38745 0)
(0.294485 1.63823 3.01698e-19)
(0.320272 1.65465 0)
(0.335371 2.03495 5.87328e-20)
(0.336985 2.3859 2.07806e-19)
(0.306693 1.47062 -2.73978e-19)
(0.26736 1.40915 2.02673e-19)
(0.28446 1.37102 -1.63975e-19)
(0.272962 1.35108 3.40097e-19)
(0.211488 1.6039 0)
(0.30101 1.61586 -2.13962e-19)
(-0.151129 2.56403 2.22152e-19)
(-0.125771 2.71758 0)
(0.0470955 2.57483 -4.02094e-19)
(-0.0452681 2.63901 0)
(-0.00191041 2.75718 3.76182e-20)
(-0.090186 2.73003 0)
(-0.380263 1.61834 2.21989e-19)
(-0.461205 1.73989 0)
(-0.313209 1.42037 0)
(-0.32513 1.43729 -2.50335e-19)
(-0.221709 2.51784 -8.1294e-20)
(-0.171666 2.66956 -2.1512e-19)
(-0.171226 2.60115 -1.4647e-21)
(-0.300752 1.94855 -4.72383e-21)
(-0.370279 1.92625 -4.30035e-20)
(-0.124955 1.53478 0)
(-0.086191 1.56551 0)
(-0.362784 1.86689 -5.60875e-19)
(-0.318166 1.45218 -5.3689e-19)
(-0.376633 1.70513 6.76562e-19)
(-0.131957 1.80506 0)
(-0.0643283 1.86289 -3.08563e-20)
(-0.0593186 1.89085 1.14188e-20)
(-0.0710109 1.90352 -3.96918e-21)
(-0.247005 1.88689 5.72791e-21)
(-0.110368 1.96951 -5.97383e-21)
(-0.133097 2.0104 4.61874e-20)
(1.02061 0.02297 -2.61863e-19)
(1.01989 0.0207465 2.61552e-19)
(1.0151 0.0188719 0)
(1.00348 0.0474137 3.82931e-19)
(0.993413 0.0340169 -4.51816e-19)
(0.966029 0.0224629 5.2572e-19)
(1.00396 0.0809546 -4.95535e-20)
(1.0359 -0.0134603 0)
(1.03749 -0.00478474 2.15734e-19)
(1.02866 -0.0205916 -2.18286e-19)
(1.0543 0.0434883 -1.17356e-20)
(1.054 0.0281692 1.05509e-19)
(1.05165 0.0504657 0)
(1.04333 0.0435691 -3.97188e-20)
(1.03728 0.0273534 0)
(1.03236 0.0211823 0)
(1.03082 0.0103786 0)
(1.02886 0.0150466 0)
(1.04464 0.0262394 8.24911e-20)
(1.04608 0.0194887 -1.87831e-19)
(1.04672 0.030069 -8.28032e-20)
(1.0444 0.029556 -9.67077e-20)
(1.05134 0.0562073 1.7128e-19)
(1.07529 0.050159 0)
(1.07727 0.093537 0)
(-0.0570961 1.86111 -1.10088e-20)
(-0.0349873 1.83463 -1.41895e-21)
(-0.0436988 1.84115 0)
(-0.0355356 1.86096 1.10254e-20)
(-0.0229229 1.84489 2.73318e-21)
(-0.0254191 1.85287 -2.36059e-21)
(-0.0561897 2.00116 3.17956e-21)
(-0.0764152 1.92834 -1.53835e-21)
(-0.0882651 1.94669 7.43366e-21)
(-0.0428493 1.94817 -6.81601e-21)
(-0.0427947 1.96093 8.73909e-21)
(-0.0645439 1.79814 1.77969e-22)
(-0.0658684 1.81811 1.36698e-20)
(0.393141 1.40409 -4.42674e-19)
(0.350203 1.3906 -4.33741e-19)
(0.643476 1.41656 -6.18133e-19)
(0.520024 1.47683 -3.35314e-19)
(0.557848 1.45326 0)
(0.58381 2.39763 1.19848e-19)
(0.652327 2.38352 2.19044e-19)
(0.411759 2.48339 7.90004e-20)
(0.408903 2.54914 -1.34026e-19)
(0.516684 2.51493 2.56701e-19)
(0.534897 2.43761 0)
(0.48639 2.47466 -3.47369e-19)
(0.276776 2.54882 5.84583e-19)
(0.358789 2.52056 -7.50353e-20)
(0.302847 2.61072 -9.13797e-19)
(0.921756 2.37479 1.78739e-19)
(0.824019 2.3659 0)
(1.0107 0.000479993 8.94114e-21)
(1.01595 -0.0055306 -7.4548e-21)
(1.01745 -0.00413983 -1.32761e-19)
(1.01514 -0.000354876 1.32801e-19)
(1.01237 0.000953357 0)
(0.625442 1.2558 0)
(0.623302 1.17246 0)
(0.729989 1.08103 0)
(0.617645 1.12818 0)
(1.17699 2.63192 5.71662e-20)
(1.06107 2.36363 0)
(0.835897 2.22886 -1.87638e-21)
(0.834522 2.48397 0)
(0.923245 2.56381 3.34312e-20)
(0.956744 2.51609 -2.24226e-20)
(0.842181 0.146118 0)
(0.812396 0.152369 7.90133e-20)
(0.927124 0.126733 3.96775e-19)
(0.86632 0.117437 -1.61232e-19)
(0.854399 0.0676743 -4.85037e-19)
(1.03083 0.211609 -2.05728e-19)
(0.953589 0.274886 -1.59546e-20)
(0.896967 0.271808 3.6041e-19)
(0.966253 0.197071 2.63239e-19)
(0.933968 0.159054 -4.9486e-19)
(0.909438 0.173653 6.44518e-20)
(0.933852 0.23499 -1.24427e-19)
(0.911057 0.193326 0)
(0.969476 0.159493 2.35614e-19)
(1.00653 0.162177 0)
(1.00443 0.188136 0)
(1.07072 0.108027 7.05503e-20)
(1.03042 0.152377 -1.3076e-20)
(1.02482 0.214805 -3.92679e-20)
(1.06094 0.187455 0)
(1.02178 0.026683 1.99662e-19)
(1.03805 0.0467225 2.34584e-19)
(1.03603 0.032078 -1.98126e-19)
(1.03422 0.0506361 -1.57896e-19)
(1.01428 0.0526266 -2.69533e-19)
(0.975653 0.123566 0)
(0.982845 0.0758097 0)
(0.969444 0.0437132 -1.89818e-19)
(0.936461 0.0577929 8.02083e-20)
(1.02038 0.0811116 2.23399e-19)
(1.03623 0.109795 -2.18716e-19)
(1.03906 0.133288 2.00362e-19)
(1.00297 0.123218 0)
(1.04577 0.0967484 0)
(1.03282 0.0789581 -9.19413e-20)
(1.031 0.0796588 -1.78095e-19)
(0.561799 1.07429 -1.06835e-19)
(0.609402 1.45052 2.0714e-19)
(1.15148 2.76268 1.21723e-19)
(1.22093 3.0987 -7.53364e-20)
(1.24243 2.73449 5.98783e-19)
(1.2758 2.71853 -3.56251e-19)
(1.20135 2.35094 -7.85089e-21)
(1.20647 3.00195 2.12337e-19)
(1.22396 2.96659 -2.42789e-19)
(1.21349 3.25202 -2.76334e-19)
(1.37633 2.98248 3.82718e-19)
(1.36964 2.89887 0)
(0.511254 0.860469 -1.0601e-20)
(0.161186 1.29214 3.59551e-19)
(0.52521 0.538475 3.433e-19)
(0.357533 0.308366 3.73099e-19)
(0.565739 0.426018 3.93564e-19)
(0.564162 0.491947 -6.2506e-19)
(0.562024 0.514294 5.1416e-19)
(0.526577 0.462867 -2.06223e-19)
(0.48126 0.401638 4.73637e-19)
(0.769348 0.263493 -1.78652e-19)
(0.732164 0.301596 0)
(0.719561 0.252381 1.00486e-20)
(0.730073 0.508456 1.79506e-19)
(0.704444 0.468818 -6.62171e-19)
(0.629248 0.488374 1.93184e-20)
(0.644901 0.459376 0)
(0.632303 0.734774 1.36711e-19)
(0.779482 0.753895 3.7828e-20)
(0.709569 0.841196 -5.30725e-20)
(0.82785 0.789785 -9.77358e-21)
(0.866131 0.830349 1.6702e-20)
(0.874844 0.83397 -1.71e-20)
(0.799269 0.620369 -1.96626e-19)
(0.875284 0.680983 9.08477e-21)
(0.936718 0.69512 0)
(0.924598 0.66988 -5.2467e-21)
(0.980149 0.311631 5.3017e-20)
(1.09288 0.277757 -1.17269e-20)
(1.0162 0.246264 8.39914e-20)
(0.965304 0.347793 -1.25621e-19)
(1.0154 0.404273 0)
(1.05344 0.39209 0)
(0.886132 0.355854 5.56832e-21)
(0.819096 0.289449 0)
(0.842262 0.274506 1.88785e-19)
(0.877763 0.28124 -6.31556e-21)
(0.906657 0.417916 6.85218e-19)
(0.866138 0.469586 1.73674e-19)
(0.874494 0.43924 -2.29002e-19)
(0.806775 0.423235 2.45246e-19)
(0.793634 0.420326 1.70282e-19)
(0.762762 0.407056 -1.67558e-19)
(1.02781 -0.00377556 2.12721e-19)
(1.01971 -0.000956928 0)
(1.01824 -4.59557e-05 1.41226e-19)
(1.02232 -0.00136483 -3.17759e-19)
(1.02145 0.00281297 1.53167e-19)
(1.0209 0.0101153 -3.22243e-19)
(1.02215 0.00952163 0)
(1.02081 0.0105755 -6.80603e-20)
(1.01645 0.00721118 1.70947e-19)
(1.01693 0.0102455 -8.58725e-20)
(1.01752 0.00940578 6.27805e-20)
(-0.198812 1.18222 0)
(-0.292733 1.36639 0)
(-0.108569 1.0651 0)
(-0.110454 1.02311 0)
(0.186172 1.32053 -1.1762e-18)
(0.242637 1.21299 3.96488e-19)
(0.299073 1.63302 2.54726e-19)
(0.308312 1.28719 -2.19833e-19)
(-0.225373 1.47433 7.75276e-19)
(-0.181843 1.4806 -5.82667e-19)
(0.0659219 1.21896 3.84507e-20)
(-0.00529823 1.19843 7.20602e-19)
(-0.108068 1.18762 9.31099e-20)
(-0.220449 1.28643 8.34733e-20)
(0.128424 2.54511 4.34177e-19)
(0.124746 2.5361 0)
(0.246622 2.16537 -4.21082e-20)
(0.25733 1.8031 -1.47637e-19)
(0.277038 2.07225 2.67629e-20)
(0.240613 2.4431 0)
(0.283199 2.39927 -1.17159e-19)
(0.323893 2.40424 8.32899e-20)
(0.27344 2.01849 9.39456e-20)
(0.222436 2.22738 1.6561e-20)
(0.169344 2.36646 0)
(-0.360293 2.25757 6.09435e-19)
(-0.341292 2.43539 3.3475e-19)
(-0.40626 2.29818 0)
(-0.25286 2.57225 -6.5008e-21)
(-0.231692 2.52606 -3.00231e-19)
(-0.305537 1.5874 -1.37889e-20)
(-0.213874 1.61976 2.12867e-19)
(-0.220336 1.68058 -5.75608e-20)
(-0.326687 1.6706 -7.57021e-20)
(-0.369224 1.61852 0)
(-0.192897 1.682 0)
(-0.0674607 1.70358 6.87773e-22)
(-0.111609 1.73045 6.311e-22)
(-0.143209 1.7011 0)
(-0.0887795 1.62966 -2.08449e-21)
(-0.0464188 1.64933 5.81761e-22)
(1.03541 0.000563898 0)
(1.04273 0.00195663 -2.04759e-20)
(1.04774 0.0158355 -1.48714e-19)
(1.04841 0.0160423 0)
(1.0487 0.0158259 0)
(1.04432 0.00443136 -6.77707e-21)
(1.03804 0.00371224 2.48764e-19)
(1.04022 0.0116532 2.99688e-19)
(1.03014 0.0178509 0)
(1.02951 0.0174972 0)
(1.04291 0.0198561 1.50055e-19)
(1.03391 0.0171289 0)
(1.03184 0.0165042 0)
(-0.117748 1.86431 0)
(-0.0852148 1.81549 1.87147e-21)
(-0.0967741 1.85313 7.32461e-21)
(-0.0867811 1.74199 0)
(-0.105789 1.79837 2.37695e-21)
(-0.0809002 1.78559 -5.24762e-21)
(-0.0759364 1.77163 0)
(0.389646 1.70477 0)
(0.348182 1.31429 6.88949e-19)
(0.278225 1.37262 0)
(0.427622 1.27291 -8.86785e-19)
(0.486282 1.43221 0)
(0.4375 1.38439 4.17836e-19)
(1.02594 2.70133 -3.44487e-21)
(0.947501 2.40725 -2.25506e-19)
(0.874935 2.14733 3.02786e-19)
(0.846839 2.35971 1.23623e-19)
(0.848832 2.52289 0)
(0.908207 2.51282 0)
(0.882126 2.37451 0)
(0.917974 2.32869 -4.36294e-19)
(0.691864 2.50559 9.19616e-21)
(0.812682 2.4924 -6.95225e-21)
(0.822811 2.46671 5.31188e-21)
(0.683974 2.36406 0)
(0.790067 2.36489 0)
(0.74921 2.37332 -2.21918e-19)
(0.775443 2.5112 0)
(0.577659 1.08557 0)
(0.474229 0.926816 3.09735e-20)
(0.517612 0.957639 6.54879e-22)
(0.500405 1.04949 0)
(0.502111 1.00516 -4.38896e-20)
(0.732467 0.867793 2.22262e-20)
(0.756311 1.00146 0)
(0.728454 0.959916 -7.74615e-20)
(0.608606 1.02543 0)
(0.615825 0.934274 0)
(1.15666 2.77915 7.02007e-20)
(1.1344 2.84479 1.33419e-19)
(0.925885 2.37304 -3.00544e-19)
(0.892796 2.34574 3.98126e-20)
(1.11972 2.74791 0)
(1.07175 2.71744 -4.78394e-20)
(1.07606 2.48904 -6.21515e-20)
(0.968507 2.22136 -2.93985e-20)
(0.489265 1.36837 0)
(0.491072 1.06782 9.41451e-20)
(0.546398 1.14979 0)
(0.858692 0.212661 0)
(0.822503 0.170104 0)
(0.779556 0.154686 0)
(0.848502 0.218174 -2.96399e-19)
(0.795611 0.214427 1.85853e-19)
(0.941424 0.0521838 -1.65384e-19)
(0.950815 0.101596 0)
(0.924774 0.103641 7.49228e-20)
(0.88777 0.0799312 3.0836e-19)
(0.882439 0.0488852 -1.89223e-19)
(1.16527 3.37717 -9.99498e-19)
(1.2104 3.29704 0)
(1.16617 3.40327 -1.96488e-18)
(0.653245 3.56389 1.68741e-18)
(0.880105 3.12902 4.03162e-19)
(0.49518 0.880936 1.96139e-19)
(0.429162 0.865086 0)
(0.355927 0.563412 -7.93225e-20)
(0.429279 0.701735 3.51702e-19)
(0.528045 0.538088 -1.07435e-19)
(0.512823 0.561402 1.2266e-19)
(0.661473 0.53395 2.5669e-19)
(0.685096 0.536811 0)
(0.62396 0.635595 0)
(0.586515 0.565293 0)
(0.931985 0.579446 -5.88234e-20)
(0.864922 0.517659 -1.6786e-19)
(0.885929 0.549888 7.03563e-20)
(0.923792 0.491322 -1.21374e-19)
(1.01643 0.469568 0)
(1.02952 0.554908 -5.97148e-22)
(0.826771 0.383754 -3.7466e-19)
(0.825614 0.368978 -4.33549e-19)
(0.778736 0.380276 2.94841e-19)
(0.772838 0.350415 -3.36426e-19)
(0.819492 0.314476 -2.49766e-19)
(0.779408 0.311929 3.06629e-19)
(1.02679 0.0029499 -1.57437e-19)
(1.02707 0.00239947 3.2013e-19)
(1.0287 -0.00414814 2.01685e-19)
(1.0315 -0.00605532 -2.42905e-19)
(1.03623 -0.00153449 0)
(1.03384 -9.93486e-05 -3.90452e-19)
(-0.0308034 1.93751 -1.46536e-19)
(-0.0251752 1.80087 0)
(0.221853 1.81704 -8.74841e-19)
(0.240543 1.82654 7.6071e-19)
(0.268906 1.6657 -4.79961e-19)
(0.190098 1.67193 0)
(-0.213869 1.87876 0)
(-0.194059 1.75708 1.59703e-21)
(-0.14624 1.7581 -1.44607e-21)
(-0.126934 1.79638 5.92401e-21)
(-0.139101 1.87316 -7.75896e-21)
(-0.161075 1.87612 4.80749e-21)
(0.497909 1.37769 4.63233e-19)
(0.501967 1.38495 -4.97546e-19)
(0.444004 1.27522 4.55878e-19)
(0.431696 1.29065 -2.86043e-20)
(0.613858 1.29698 0)
(0.546749 1.36636 5.70087e-19)
(0.557447 1.37261 -5.51276e-19)
(0.457544 1.25755 -4.35571e-19)
(0.502313 1.21811 0)
(0.553475 1.18816 0)
(0.651412 2.45945 -1.35634e-20)
(0.672681 2.47765 4.92248e-19)
(0.717195 2.49757 -3.37652e-19)
(0.620464 2.48623 -1.16578e-19)
(0.553962 2.57563 9.44535e-20)
(0.514307 2.54794 -2.87256e-19)
(0.960661 2.36268 -1.63281e-19)
(1.00207 2.38809 0)
(0.89315 2.1322 -2.23308e-19)
(1.04059 2.69855 0)
(1.03903 2.68322 0)
(0.623672 2.29758 2.70527e-19)
(1.04385 3.17892 5.06463e-19)
(0.915987 3.04834 -4.59688e-19)
(0.294351 0.976275 0)
(0.347204 0.847871 -1.41033e-19)
(0.492107 0.791806 -4.99785e-20)
(0.412245 2.05113 0)
(0.474225 2.79588 -2.80636e-19)
(0.437497 2.5621 0)
(0.645184 0.679044 -2.81905e-19)
(0.717663 0.656522 3.57416e-19)
(0.751367 0.602344 -3.48045e-19)
(0.643251 0.640709 -4.2918e-20)
(0.709041 0.584804 -1.75102e-19)
(1.00363 2.78673 -3.84999e-19)
(1.03517 2.84333 3.14406e-19)
(0.654127 2.20173 2.43409e-21)
(0.601714 1.73985 -3.55146e-20)
(0.698985 1.93333 1.44962e-19)
(0.986792 2.46969 -6.51976e-20)
(0.988239 2.4727 -1.90514e-19)
(0.675792 1.88741 -7.33051e-21)
(0.451616 1.35144 -9.50748e-20)
)
;

boundaryField
{
    wall-4
    {
        type            noSlip;
    }
    velocity-inlet-5
    {
        type            fixedValue;
        value           uniform (1 0 0);
    }
    velocity-inlet-6
    {
        type            fixedValue;
        value           uniform (0 3 0);
    }
    pressure-outlet-7
    {
        type            zeroGradient;
    }
    wall-8
    {
        type            noSlip;
    }
    frontAndBackPlanes
    {
        type            empty;
    }
}


// ************************************************************************* //
