/*--------------------------------*- C++ -*----------------------------------*\
| =========                 |                                                 |
| \\      /  F ield         | OpenFOAM: The Open Source CFD Toolbox           |
|  \\    /   O peration     | Version:  4.0                                   |
|   \\  /    A nd           | Web:      www.OpenFOAM.org                      |
|    \\/     M anipulation  |                                                 |
\*---------------------------------------------------------------------------*/
FoamFile
{
    version     2.0;
    format      ascii;
    class       volScalarField;
    location    "45";
    object      p;
}
// * * * * * * * * * * * * * * * * * * * * * * * * * * * * * * * * * * * * * //

dimensions      [0 2 -2 0 0 0 0];

internalField   nonuniform List<scalar> 
918
(
0.571808
1.21946
0.000728078
0.571059
-0.0116016
1.18707
-0.484041
0.720037
0.551684
-0.0787209
-0.00900937
0.54834
1.04805
0.813815
-1.10157
-0.00250121
0.671733
-0.370626
0.551074
-0.0231208
0.755064
0.558128
0.561152
0.551544
0.618307
0.793049
0.928865
0.0278975
0.00272286
-0.00143394
-0.0102267
-0.0421468
-0.0322592
1.07044
1.12105
1.14363
0.520128
0.358887
-0.33534
-0.414474
-0.406569
-0.527727
0.714826
0.713134
-0.174965
0.723318
0.729366
0.53923
0.551023
0.55197
0.553044
0.552001
0.553424
0.42986
-0.0821386
-0.116607
-0.0585403
-0.0483645
0.079618
-0.0106337
-0.0116533
-0.00695222
-0.00766812
0.469745
0.543581
0.540786
0.553378
0.563253
1.15821
1.12927
1.15486
1.07186
1.08665
1.02576
0.997744
0.834756
0.856414
0.799935
0.785081
-1.52004
-2.47724
-0.517415
-0.265501
-0.0116538
0.00488815
0.0176853
0.665225
0.664259
0.672994
0.68401
1.10907
-0.339422
-0.490648
0.550884
0.549866
0.557972
0.558332
0.555497
0.553578
-0.0201432
-0.0186437
-0.0234636
-0.0245525
-0.0258385
0.743354
0.741887
0.553222
0.549815
0.568127
0.5877
0.581544
0.298571
0.620554
0.632151
0.615907
0.781058
0.777339
0.785023
0.903421
0.867246
0.965961
0.989347
0.0162658
0.00214015
-0.00817485
-0.0168407
-0.0136702
0.516042
0.507958
0.53519
0.523543
0.525992
0.275652
0.142576
0.452197
0.480503
-0.25118
-0.322394
-0.403197
-0.434885
-0.533523
0.64292
0.704257
0.702554
-0.182948
-0.11914
-0.247209
-0.0364688
-0.102695
0.529527
0.536535
0.53088
0.546583
0.541301
0.542898
0.55534
0.552407
0.553928
0.490063
0.592741
0.361154
0.321701
-0.226343
-0.129615
-0.223456
-0.0351559
-0.0289787
0.095223
0.121987
0.0678057
0.0609536
-0.0236978
-0.0153669
-0.0192628
-0.00735457
-0.0112393
0.464209
0.454029
0.483353
0.490597
0.533767
0.534784
0.538053
0.536546
0.94793
0.970578
0.978979
0.952394
-3.4909
-6.54362
0.0578681
0.19856
-0.0047056
-0.00897545
0.00430821
-0.0015606
0.00158418
-1.1743e-05
0.0176299
0.0164529
0.0218102
0.0265898
0.654829
0.655001
1.01462
1.00966
0.976911
0.919975
0.539127
0.541233
0.546713
0.542225
-0.0121448
-0.0167198
-0.0154553
0.731374
0.738098
0.73598
0.261344
0.174874
0.349314
0.378115
0.647431
0.636444
0.645378
0.678684
0.714159
0.99589
1.01369
1.01392
1.02181
1.06686
1.07972
1.04554
0.496172
0.505746
0.501272
0.538316
0.536053
0.536931
0.532726
0.533998
0.53145
-0.0269525
-0.38721
0.541613
0.556176
0.537685
0.542668
0.714167
0.781377
0.684738
0.694258
0.692778
0.0310343
-0.0304136
0.277029
0.243906
0.404529
0.440606
0.417553
0.919247
0.88064
0.930647
0.903796
0.863866
0.890254
-0.426261
-1.6626
-0.924929
0.558231
0.366977
0.456323
0.0414837
0.0196458
0.0266711
0.997613
1.08749
0.640512
0.828354
0.876471
0.750112
0.779894
0.841705
0.765586
0.800611
0.83408
0.812001
0.600426
0.555281
0.559071
0.843969
0.89798
0.152894
0.0999729
0.0437282
0.13983
0.193873
0.168627
1.03617
0.952191
1.02468
0.549427
0.55004
0.00680225
0.00482437
0.554247
0.554445
-0.00570917
0.00381301
0.442015
-0.795643
0.126322
0.542399
0.532656
0.54963
-0.0676802
0.392105
-0.00932135
0.0808307
0.0196128
0.545389
0.480628
0.442125
0.00282581
-0.00817903
-0.0172562
-0.208881
0.546941
0.545094
0.549147
0.550191
0.550829
-0.01404
-0.00154596
-0.00513577
-0.0194446
-0.0186091
-0.0233546
0.514197
0.531888
-0.150577
0.549272
0.55148
0.55129
0.54417
0.550019
0.54795
0.00434883
-0.00655176
-0.0102118
0.248684
0.374666
0.683085
0.781939
0.655389
0.421339
0.168362
0.588072
0.650705
0.559056
0.709687
0.697688
0.717326
0.199138
0.0374485
0.200626
0.140485
0.540592
0.539008
0.531053
0.528031
0.5446
0.542785
0.547178
0.54414
0.547041
0.548481
-0.0202263
-0.0477738
-0.0596264
-0.134874
0.347871
0.615188
0.283643
0.324847
0.166632
-0.00626029
-0.00406201
-0.00728727
-0.0150222
0.038024
0.00381837
0.0778025
0.0760654
0.0417772
0.0135496
0.027466
0.00907638
0.0147577
0.538708
0.537176
0.543452
0.552088
0.49011
0.493798
0.459419
0.479804
0.464835
0.407156
0.441582
0.41687
0.00308348
0.00750107
0.000704027
-0.00344454
0.00298541
-0.0038372
-0.00927111
-0.0101597
-0.00363837
-0.0101332
-0.0130936
-0.0177389
-0.164581
-0.275125
1.0116
0.94268
0.137594
0.535925
0.542509
0.539124
0.544144
0.547199
0.548051
0.545811
0.54238
0.532441
0.534176
0.530746
0.531436
-0.0798916
-0.22549
-0.0580111
-0.123013
0.149981
0.636924
0.385805
0.313361
0.314056
0.542856
0.96129
0.72217
0.70547
0.740595
-0.33755
0.0336883
-0.277808
0.313097
0.138308
0.685675
0.734765
0.755485
0.702862
0.656736
-0.228625
0.561788
-0.044051
0.00321054
0.209299
0.0948849
0.721269
0.681628
0.686751
0.706086
0.725882
0.685204
0.66904
0.66585
0.701726
0.706146
0.51333
0.281906
0.2264
0.193815
0.665704
0.550668
0.603049
0.515858
0.535525
0.538269
0.536814
0.518994
0.526461
0.52203
0.528172
0.531433
0.540571
0.541143
0.536153
0.538411
-0.0195174
-0.02454
0.00489019
-0.116811
-0.105797
-0.188988
-0.0307887
0.0895673
0.0578295
0.254282
0.334915
0.0642321
-0.0312803
-0.00458185
0.0184982
0.189995
0.247599
0.105299
0.18552
0.183199
0.162497
0.278761
0.275106
0.00633605
0.00116939
0.000897045
-0.000340032
0.0492197
0.118306
0.135118
0.0251543
0.0211097
-0.00189734
-0.00408571
0.00661644
0.00288613
0.00647811
0.0427511
-0.0618787
-0.00700234
0.0132116
0.0298961
0.0234209
0.0112415
0.531515
0.533611
0.533399
0.541394
0.558961
0.57514
0.531735
0.512511
0.503144
0.505955
0.479466
0.490026
0.485336
0.498329
0.519318
0.528443
0.526421
0.529149
0.512046
0.513726
0.500691
0.503978
0.480717
0.461563
0.449442
-0.0114139
0.0163034
0.0285551
-0.021731
0.00577554
-0.00782363
0.0128535
0.0335584
0.0176966
0.00910009
-0.000238824
-0.00620982
0.000731496
-0.0608343
0.0277602
-0.166288
-0.203285
-0.278575
0.913528
1.01997
0.835247
0.601956
0.615537
0.862835
0.945299
0.573089
0.745943
0.774703
0.61632
0.858463
0.540992
0.540546
0.538086
0.537603
0.538933
0.0112703
0.118844
0.116639
0.182817
0.295516
0.417444
0.325514
0.197861
0.328852
0.318792
0.628767
0.64488
0.601079
0.623387
0.625745
0.446397
0.521673
0.575384
0.533503
0.580295
0.598979
0.55953
0.58771
0.541465
0.494577
0.494074
0.443589
0.45647
0.435379
0.419113
0.531038
0.507616
0.518293
0.508498
0.529572
0.552262
0.547057
0.581939
0.592969
0.513596
0.470563
0.477845
0.510596
0.471104
0.486147
0.500968
0.244843
0.174041
0.213258
-0.077698
0.00632927
-0.0699105
-0.100942
0.0163207
0.31613
-0.423004
-0.484841
-1.03935
0.506887
1.03279
0.674784
0.618714
0.72335
0.701912
0.704575
0.732276
0.733197
0.656957
0.673
0.67975
0.635272
0.657202
0.686901
0.681379
0.54656
0.398196
0.391242
0.35086
0.226071
0.265671
0.467441
0.381963
0.307335
0.321789
0.48247
0.375219
0.441126
0.468638
0.389031
0.361837
0.557403
0.62794
0.616807
0.589991
0.511312
0.523902
0.552347
0.586282
0.611155
0.647462
0.527711
0.533586
0.534846
0.532285
0.529506
0.532426
0.532635
0.535243
0.535982
0.539094
0.538055
-0.0120526
-0.000367568
-0.0122352
-0.0215471
0.00745709
0.00451322
0.0540048
0.038161
0.0194582
0.0258484
0.000539186
0.000413032
0.0027899
0.0102877
0.131879
0.132261
0.112999
0.0811271
0.25886
0.396694
0.460412
0.339288
0.248881
0.274562
0.28721
0.0139657
0.0410582
0.0312445
0.0666311
0.0638588
-0.00325298
-0.00608563
-0.00494651
0.000345873
0.0125628
-0.00718313
-0.0134559
-0.00268539
-0.0071982
-0.0084153
-0.0146406
0.515074
0.508709
0.509061
0.503725
0.502797
0.51574
0.520094
0.522541
0.527898
0.529776
0.520525
0.525706
0.52926
0.012344
-0.0154731
-0.025175
0.000264279
-0.00920026
-0.00507907
-0.00322498
0.139117
0.0694791
0.0666254
0.0249542
-0.106431
-0.0488772
0.509809
0.510845
0.514893
0.734936
0.588219
0.51363
0.61624
0.715085
0.286846
0.479749
0.315543
0.900091
0.790305
0.936325
0.544086
0.251786
0.414203
0.471142
0.261574
0.339338
0.335992
0.235709
0.264654
0.290165
0.39439
0.285185
0.268764
0.0192359
0.213886
0.32998
0.316308
0.441949
0.509347
0.26685
0.194869
0.162716
0.621259
0.639172
0.658057
0.629417
0.652496
0.591476
0.579372
0.598219
0.607214
0.602756
-0.765197
-0.473863
-1.38781
-0.679123
-0.237524
0.538822
0.505609
0.780909
0.663635
0.716466
0.702168
0.670489
0.635584
0.650761
0.680259
0.378684
0.48474
0.461684
0.464383
0.356785
0.300469
0.597546
0.58964
0.62867
0.65138
0.619127
0.652723
0.525455
0.525138
0.524788
0.521327
0.519591
0.521709
0.0888586
0.0557376
0.100695
0.0800216
0.0557177
0.0396806
0.0244505
0.0140159
0.000850201
-0.00198836
0.0167632
0.0230722
0.172876
0.111413
0.0413224
0.0679263
0.00845829
-0.0611978
-0.0797581
0.0239458
0.117599
0.118642
0.424112
0.663249
0.482899
0.652951
0.518824
0.550123
0.505122
0.500799
0.527305
0.41187
0.485925
0.30548
-0.232101
-0.111668
0.765264
0.825401
0.600477
0.474851
0.184184
0.309079
0.571892
0.495766
0.537598
0.610137
0.599686
0.0288521
0.0548195
0.396692
0.59832
0.257873
0.190736
0.207448
0.371397
0.324855
)
;

boundaryField
{
    wall-4
    {
        type            zeroGradient;
    }
    velocity-inlet-5
    {
        type            zeroGradient;
    }
    velocity-inlet-6
    {
        type            zeroGradient;
    }
    pressure-outlet-7
    {
        type            fixedValue;
        value           uniform 0;
    }
    wall-8
    {
        type            zeroGradient;
    }
    frontAndBackPlanes
    {
        type            empty;
    }
}


// ************************************************************************* //
