/*--------------------------------*- C++ -*----------------------------------*\
| =========                 |                                                 |
| \\      /  F ield         | OpenFOAM: The Open Source CFD Toolbox           |
|  \\    /   O peration     | Version:  4.0                                   |
|   \\  /    A nd           | Web:      www.OpenFOAM.org                      |
|    \\/     M anipulation  |                                                 |
\*---------------------------------------------------------------------------*/
FoamFile
{
    version     2.0;
    format      ascii;
    class       surfaceScalarField;
    location    "45";
    object      phi;
}
// * * * * * * * * * * * * * * * * * * * * * * * * * * * * * * * * * * * * * //

dimensions      [0 3 -1 0 0 0 0];

internalField   nonuniform List<scalar> 
1300
(
3.75095
5.62643
-3.16459
3.75095
-7.70708
5.62643
-4.38847
4.38847
-0.749224
0.749224
1.87646
1.87449
-2.96022
2.96022
-2.44653
2.44653
-2.5437
2.5437
-5.24641
5.24641
-5.06778
5.06778
4.65887
-4.65887
-6.24869
6.24869
-1.089
1.089
-3.85642
3.85642
3.16875
-3.16875
-2.27182
2.27182
-0.17263
0.17263
-0.553134
4.30409
3.19782
3.19782
-2.01548
2.01548
-4.86599
4.86599
6.21757
-6.21757
5.17566
-5.17566
-2.01107
-2.35287
1.82149
-11.595
-5.88558
-5.88558
-8.44023
8.44023
-2.8138
2.81263
2.94503
-2.94503
-1.86678
1.86678
-4.30272
-0.0857515
-4.30272
4.39801
-0.00954227
4.39801
-0.831018
0.0817942
-0.831018
3.93108
-3.93108
0.634174
0.11505
0.634174
3.06518
-3.06518
-1.87717
3.75364
1.87378
-1.87178
6.17587
-1.87917
3.75366
-5.9686
5.9686
-3.17108
0.21086
-3.17108
2.77796
0.182263
2.77796
-6.80295
6.80295
-2.50199
0.0554686
-2.50199
2.4011
0.0454213
2.4011
2.87114
-2.87114
-2.64936
0.105661
-2.64936
2.42988
0.113812
2.42988
0.353676
5.27275
-5.98011
8.79273
-5.27275
0.0263438
5.20824
0.0381672
5.20824
-5.10548
0.0376936
-5.10548
5.01292
0.0548608
5.01292
4.73393
-0.0750641
4.73393
-4.78412
0.125251
-4.78412
-3.39707
-4.06951
-6.40183
0.153137
-6.40183
-1.12122
0.0322186
-1.12122
1.03826
0.0507392
1.03826
-3.64633
3.64633
-4.16648
0.31006
-4.16648
3.12259
0.0461559
3.12259
1.86902
1.88193
5.61998
-5.61998
2.45123
-2.26827
-0.00354323
-2.26827
-2.27747
-2.89819
2.27747
-0.00565141
-0.406275
0.233645
-0.406275
3.16012
0.0376974
3.16012
2.27374
0.156147
-2.27374
0.258257
3.24615
-3.24615
1.34694
0.668539
1.34694
-5.56845
5.56845
4.95401
0.0589068
-4.95401
0.0880274
6.15584
0.0617283
6.15584
-6.19979
-0.017776
-6.19979
2.65074
-5.00361
-2.54774
6.06433
0.18436
-6.06433
0.178746
2.91572
0.0293178
2.91572
-2.91871
2.91871
-2.98417
0.0391351
-2.98417
-2.24866
0.381884
-2.24866
1.58233
0.284453
1.58233
-4.18256
-0.12016
-4.18256
-4.31452
0.148036
4.31452
0.0834891
1.18424
-1.18424
-0.935291
0.104273
-0.935291
-4.05004
-0.132516
4.05004
-0.118964
-3.80873
-0.122343
-3.80873
-3.02414
0.0399743
3.02414
0.0410381
3.11321
0.0469161
-3.11321
0.0480242
-1.87089
3.75282
-1.88006
3.75384
-5.59359
-0.375002
-5.59359
6.27935
-0.310756
6.27935
3.5298
0.326627
-3.5298
0.358715
2.64875
0.129208
2.64875
-6.76394
-0.0390074
-6.76394
6.78699
0.0159555
6.78699
2.55542
0.093331
-2.55542
0.0534263
2.33964
0.0614665
2.33964
2.89126
-0.0201186
2.89126
-2.86909
-0.00204449
-2.86909
2.79629
-2.79629
2.72716
0.0691329
-2.72716
0.077804
-11.1327
11.115
-0.0350613
-11.0977
5.17318
5.17318
4.14857
0.585364
4.14857
-4.99897
0.214852
-4.99897
2.75087
-5.2986
3.06869
-6.46576
4.69018
-16.2852
4.32945
-8.39895
6.64698
-6.64698
6.53674
0.110234
-6.53674
0.134918
-1.1928
0.0715822
-1.1928
-3.04745
-0.598875
-3.04745
4.29244
-0.646118
4.29244
-3.02762
3.02762
-3.07663
0.0490117
3.07663
0.0459592
2.27927
0.0603693
-2.27927
0.0109962
0.5214
0.112774
-0.5214
0.115125
3.43819
-0.192046
3.43819
-3.05707
-0.189075
-3.05707
-1.26995
0.0771495
1.26995
0.0769908
-5.81684
0.248392
-5.81684
-11.1909
0.093226
-11.1527
-6.10657
-6.10657
2.33366
11.1264
-2.88988
0.0207896
2.88988
0.0258323
2.97418
0.0534364
-2.97418
0.0554704
-2.85974
0.0634445
2.85974
0.0589736
-2.63086
0.3822
-2.63086
-1.17329
1.17329
-1.34657
0.173282
1.34657
0.235755
1.41988
-0.235643
1.41988
0.995421
0.0428398
-0.995421
0.0601297
-3.71388
-0.0948506
-3.71388
6.51337
-0.234016
6.51337
-2.9481
-0.10897
2.9481
-0.0568458
-0.0334658
11.1484
-5.13972
0.0342403
5.13972
-11.2102
11.2444
-3.2567
0.62584
3.2567
0.891869
5.29041
0.278046
-5.29041
0.291431
6.73432
0.0526695
-6.73432
0.0873452
-2.5657
-0.481754
-2.5657
-5.02875
-0.564846
5.02875
-0.736302
-11.4736
-0.202341
11.676
-11.4188
6.01918
0.136659
-6.01918
11.3811
-1.10788
-0.0763625
1.10788
0.0654091
1.72237
-0.302487
1.72237
3.61829
-0.180096
-3.61829
-0.0955941
-6.66878
-0.0951641
6.66878
-0.155409
-2.12272
-0.442979
2.12272
-0.400347
-4.26691
4.30461
1.90896
-2.48372
-2.51988
-5.38191
1.85153
1.9013
4.30276
-10.2065
-6.07866
-10.0278
7.25648
-6.96505
-9.26403
9.18897
7.73881
-7.86115
-5.78699
5.83295
6.48281
-6.44177
1.87876
1.87487
7.89964
-7.68878
-15.6264
15.2514
7.43927
-7.3838
15.7811
-15.8201
-17.8835
17.9362
-5.70845
5.81411
-6.73138
6.72934
-6.95182
6.89497
-2.87234
-3.59342
13.1824
-13.0293
8.4159
-8.41944
-8.57674
8.8868
3.38198
0.922627
3.4289
-1.88231
3.76107
-1.87135
3.78032
2.67875
-5.55109
2.61985
-5.13974
4.19697
4.21893
-4.19132
-1.1906
-5.92041
5.94973
-5.82043
5.8794
9.00743
-9.09318
-1.8852
3.76008
-1.86864
3.76993
-3.4265
-2.36049
3.38034
0.922415
8.1152
5.06719
-8.29956
-1.72822
-7.99037
7.81027
-8.18764
7.99857
-0.433245
5.81752
-5.38428
4.43274
-1.55886
7.37638
5.69762
5.91247
5.86299
-5.58494
1.10206
-6.48634
-6.39831
-2.4347
2.53897
2.37213
-2.25708
6.01663
1.72218
5.89766
-5.70956
-2.15159
-5.80441
3.82169
2.01125
3.8707
4.07691
2.4059
4.11688
3.03056
-3.03562
0.00506051
-3.05632
6.08688
0.724462
-5.41681
-4.49439
4.93319
2.96646
5.11545
-5.48648
-2.20231
-5.12776
-9.53191
-6.09445
-10.0968
10.0974
5.154
9.78661
-11.9732
11.8178
4.74907
2.6902
4.79449
-4.87749
-2.50632
-4.82406
11.6132
-2.60341
-9.00976
-10.3358
-7.54766
10.3199
5.4612
10.9887
6.94741
11.0761
4.43156
7.1816
-9.89277
2.3451
-3.86517
-1.84329
-3.78736
3.68242
2.13169
3.79623
-4.21444
-2.51694
-4.19365
-4.28873
-2.66309
4.30885
2.42049
-4.40473
-3.78292
4.5137
2.38127
4.05079
-10.1294
4.34816
-7.94158
-9.24104
-3.78821
-9.10612
3.47338
2.61706
-6.09045
-2.07771
8.40804
-4.18911
7.21744
-5.13063
-3.28881
-5.11964
-6.81376
-1.76298
-6.66572
-8.85128
8.36952
-9.17331
8.52719
12.5849
-5.67543
-6.90943
-3.96852
-2.47325
3.9205
-0.4916
-3.71068
3.71575
0.0503849
3.8307
4.75333
4.26173
-3.8874
-1.93303
-3.83193
3.83069
2.04871
3.89414
6.78136
2.22607
6.77182
-6.50444
-2.58874
-6.6246
9.03688
-8.655
2.90562
-2.82847
5.36255
2.63602
-5.1705
-2.81986
6.19953
-3.19833
-3.0012
-12.2145
10.5763
1.63825
-4.83812
-0.405381
-0.232751
-5.48582
-3.77821
5.36057
0.551907
11.1282
7.34995
-5.5121
5.76049
6.16385
6.22276
-0.175552
5.77199
-5.14616
5.32431
-2.48867
-2.83564
5.36768
-5.5002
-1.25691
-5.37872
4.1218
0.397464
1.63355
-1.39991
-1.88753
-0.547162
-1.8274
1.42752
0.944618
1.54029
0.926593
1.61238
-2.9407
0.562913
2.37779
-2.01411
-1.69417
-3.71516
-1.14986
4.86502
5.72841
2.08186
-5.63281
-0.171595
2.60961
-2.55887
-0.721519
-2.99364
2.20649
-2.92801
-3.68437
-1.94803
5.6324
-3.37102
-0.460915
3.31758
0.553124
-3.82585
-2.09456
3.78672
0.330165
-3.12585
6.18859
-3.06274
-5.05888
2.52855
3.55833
4.5398
-4.78901
2.44648
2.34253
-1.23069
4.21718
0.898275
4.34638
-6.78325
4.58094
5.75379
3.13301
-6.08042
0.952655
-5.83059
8.4694
-7.28075
-1.18865
4.11751
4.35188
7.12177
5.46309
-5.72921
12.851
-1.17553
-6.10522
7.00612
-3.87311
4.76331
-8.63642
-10.2264
4.12118
-9.17106
10.9347
-1.76359
-3.63035
-8.34286
12.8014
-1.20973
-11.5917
8.57688
-4.16697
-4.26341
8.43037
-6.77038
6.76972
-1.95659
-4.81313
-10.1135
-5.70662
10.2086
1.60919
-9.84004
12.1851
-2.65844
4.06145
0.733044
4.12291
3.23921
-5.41174
2.17253
3.53116
-5.48775
2.06376
-7.4755
-6.74762
12.115
-5.36737
-10.5358
-9.53745
-0.998391
2.53951
9.64563
-9.48692
7.45725
2.02967
3.30704
0.587097
-3.37617
-0.411192
0.23745
4.53414
-4.77159
4.03368
4.18983
3.32915
1.20499
3.84232
2.10741
-3.86815
-0.3255
-4.15532
1.49223
-1.73483
-3.68357
5.1758
-4.06953
0.38596
-2.74053
-3.50444
6.24498
-4.58382
3.0366
3.15199
5.08531
-4.91276
1.40831
-2.39851
-2.51425
2.66122
-4.39605
1.97952
3.19628
4.36079
0.577879
5.89852
6.21648
-8.51558
0.573996
11.2837
-9.55545
2.46252
8.61357
-9.91977
0.382321
-8.7238
1.01907
-5.20818
-5.07138
5.09001
-6.85299
-3.54641
6.1548
0.617014
-6.23829
-0.427429
-6.03044
-2.82084
-6.47342
-3.04391
-6.1294
-8.77312
-1.64125
-7.13186
6.72827
-6.67383
-3.42292
7.41014
1.11705
-7.39861
7.32225
-7.48245
7.17996
0.0952
3.62055
4.35693
1.88368
-2.38986
4.27354
-5.08892
7.31499
-8.59903
3.5101
4.06354
-6.65228
-4.53549
5.0321
4.00478
5.31656
8.91309
-10.3995
1.48643
-10.7208
12.0341
-1.31327
-16.4818
5.76098
-7.56872
2.56252
0.343099
2.6341
0.588394
2.49597
-3.08436
-2.24008
-2.16309
-2.39238
-3.446
5.83838
1.11925
-3.48045
2.3612
-3.55563
4.67487
-0.138665
-3.34178
5.30049
-2.80452
5.64359
-3.69429
1.94929
3.39502
5.73416
-2.33915
4.37789
-1.74186
1.88798
-4.22712
-1.55802
-2.96306
5.09475
-3.28192
3.66788
-0.323158
3.99104
-4.08596
0.88763
-0.756808
3.43302
3.69128
4.29207
-3.08708
2.93626
-4.67812
-1.29087
-4.10024
-0.90396
-0.281751
-3.76194
4.04369
6.03303
-6.31478
-5.22173
9.53805
-4.31632
7.72253
-5.38435
-2.33818
-4.24424
-4.41075
3.86204
1.90995
9.63248
0.237446
-5.6218
-4.90871
-4.01684
3.17489
2.14942
-1.85771
3.49595
2.09046
-0.456904
0.510302
1.02999
1.84331
-1.33301
0.254796
1.58851
-1.14511
1.87588
0.733733
-1.91872
0.0913135
-1.3012
3.50769
1.07659
-2.02121
0.688199
1.01827
-3.50694
4.98997
-2.62306
-2.36691
6.00825
1.11626
-3.73932
4.26246
-3.865
2.33235
-3.48221
-1.40697
-5.27197
-3.54979
-2.54968
4.91088
-3.2887
5.37056
1.22651
-5.19897
6.42548
-3.63655
1.68852
-3.09507
3.8288
-1.03833
-2.05674
2.8651
2.76731
-2.98445
-0.00919061
-0.119349
2.36992
-2.48927
-0.558092
-2.5722
-4.57358
4.90374
-2.10585
4.55234
2.16768
-1.91566
6.468
1.81016
-3.72582
-3.24872
-3.70964
-1.38329
3.15651
-0.594465
-4.2296
-5.4076
4.13627
0.210116
-6.91498
7.7232
-0.808221
-3.94852
-0.632422
4.74994
-5.96677
0.479024
-3.90301
3.82018
4.71846
4.92858
-11.3836
-0.208058
-6.22964
1.15355
-7.38319
5.50544
-3.60059
7.72177
-10.3674
6.94452
-9.25039
6.53312
-0.85007
6.24515
-4.07263
2.7646
-8.47122
-6.86203
5.40347
-2.71326
6.13651
-3.05867
9.19518
-5.71711
5.15814
4.03705
-0.96348
-4.15616
-5.18526
4.22178
-0.0271251
4.09579
4.97471
-2.8673
4.64921
2.26378
-4.66229
-2.13227
-6.49914
1.83685
-3.34715
-1.9178
3.75465
3.16752
3.75462
1.2404
-3.34342
7.15924
-8.15763
-1.79187
-3.27951
5.16241
-0.940624
3.33458
-6.61409
-1.87359
4.86452
-0.843311
-4.02121
0.81091
-4.35732
1.67397
-6.03129
5.17902
-5.60645
2.19351
-9.76223
-5.2051
-5.1397
-2.23645
-5.246
-7.60158
5.36514
-1.8406
5.48164
-8.55432
7.71101
-3.47979
8.84493
-5.43763
-1.03578
5.83798
1.34198
10.1869
0.193538
-4.72902
-1.92364
3.95099
-2.02736
1.25125
-3.5684
0.382596
2.4821
3.52615
-6.60391
-0.048375
-4.7774
-3.92976
7.93454
5.60829
11.6413
1.24179
9.1118
-1.17726
10.3536
4.1393
4.37505
-3.031
4.51743
1.01269
4.52279
-0.88575
2.83504
1.74835
1.78057
0.7783
2.31482
1.37646
3.20245
0.118089
-2.045
4.62845
-8.64529
-0.993348
-8.05993
1.12904
5.82114
-4.6921
3.06472
-0.915299
1.03736
0.051554
-1.53458
1.48302
-2.78409
-1.99148
-0.402966
-1.65532
2.34352
1.85237
-1.94056
-0.843529
0.378365
-3.92816
3.10384
-3.11303
-0.345726
6.07975
-2.78691
0.29764
-1.09839
-2.27456
-2.82172
2.73041
6.1759
0.292102
3.11316
5.19585
3.10129
0.23399
3.88856
-5.65216
-3.58694
-5.86022
-0.354779
4.39516
1.71396
7.93166
5.75101
4.81039
-1.80371
-9.96134
6.53352
-2.01609
5.22025
-1.19904
-4.83225
5.00191
2.31308
-5.61893
0.0124763
-4.81978
-6.83587
-0.554969
8.26598
-9.63194
8.59616
5.77532
1.35655
-4.41038
-0.729311
4.2371
0.137951
10.4915
-1.17887
-6.72153
7.9004
-4.64227
3.64892
0.756578
2.73937
2.2396
1.3243
-5.39723
-10.0893
-1.98583
-1.52111
-4.35274
0.512274
-2.36464
6.27046
-2.62154
3.93228
5.27886
6.31622
-2.14111
-4.17367
6.45743
-2.52515
3.79108
)
;

boundaryField
{
    wall-4
    {
        type            calculated;
        value           uniform 0;
    }
    velocity-inlet-5
    {
        type            calculated;
        value           uniform -3.75095;
    }
    velocity-inlet-6
    {
        type            calculated;
        value           uniform -5.62643;
    }
    pressure-outlet-7
    {
        type            calculated;
        value           nonuniform List<scalar> 8(3.16459 7.70708 4.36393 9.77351 7.46658 5.19847 5.81956 9.01963);
    }
    wall-8
    {
        type            calculated;
        value           uniform 0;
    }
    frontAndBackPlanes
    {
        type            empty;
        value           nonuniform 0();
    }
}


// ************************************************************************* //
