/*--------------------------------*- C++ -*----------------------------------*\
| =========                 |                                                 |
| \\      /  F ield         | OpenFOAM: The Open Source CFD Toolbox           |
|  \\    /   O peration     | Version:  4.0                                   |
|   \\  /    A nd           | Web:      www.OpenFOAM.org                      |
|    \\/     M anipulation  |                                                 |
\*---------------------------------------------------------------------------*/
FoamFile
{
    version     2.0;
    format      ascii;
    class       volVectorField;
    location    "45";
    object      U;
}
// * * * * * * * * * * * * * * * * * * * * * * * * * * * * * * * * * * * * * //

dimensions      [0 1 -1 0 0 0 0];

internalField   nonuniform List<vector> 
918
(
(0.98509 -0.00055105 0)
(0.00479414 2.96625 0)
(0.0116093 0.839697 0)
(0.979828 0.00240809 0)
(-0.0115494 2.04765 1.60723e-20)
(-0.00704899 2.94891 -1.10268e-18)
(0.815995 1.16498 1.75392e-19)
(0.239977 0.122372 -6.41505e-21)
(0.999905 -0.000301179 0)
(0.0506676 0.829969 0)
(0.0120268 0.648143 0)
(0.731894 -0.0139947 0)
(0.0114876 2.93014 0)
(0.00331973 2.79463 0)
(-0.0210134 3.15285 3.36417e-19)
(-0.023263 1.89499 -4.39171e-22)
(0.308394 0.0358126 4.20397e-19)
(0.20383 1.18997 1.24726e-19)
(0.961969 0.00387781 0)
(-0.00669763 0.57636 0)
(0.0442252 0.153152 -3.05184e-19)
(1.00217 -0.00520037 0)
(1.00076 -0.0101521 0)
(0.975976 -0.00653268 0)
(0.579779 -0.0282156 0)
(0.0180933 2.63872 0)
(-0.0148061 2.91009 3.8829e-19)
(0.0147424 0.918147 0)
(0.00448626 1.16598 0)
(0.0125884 0.897909 0)
(-0.0104573 2.61466 0)
(0.00138785 2.10711 -1.25141e-20)
(-0.0112556 1.86844 0)
(-0.0204559 2.98752 -3.97181e-23)
(-0.0169819 3.0054 8.75929e-19)
(0.00201672 3.00016 0)
(0.870815 -0.0088421 0)
(0.438652 0.97391 8.12415e-20)
(0.786985 1.18415 -1.86633e-19)
(0.932881 1.02008 2.08837e-19)
(0.659289 1.28101 -4.01573e-20)
(0.665358 1.26493 2.34319e-19)
(0.279716 0.193721 6.25489e-21)
(0.252748 0.0962581 0)
(1.133 0.570334 0)
(0.250284 0.183883 2.85734e-20)
(0.211061 0.121936 -2.96681e-20)
(0.919585 -0.00724384 0)
(1.00028 0.000157079 0)
(0.999916 0.000343627 0)
(1.00351 -0.00767316 0)
(1.00096 -0.000945528 0)
(1.00019 2.3468e-05 0)
(0.0621943 1.80398 -3.33273e-19)
(0.0253877 1.01631 0)
(0.0813559 0.896718 0)
(0.0106689 0.970039 0)
(0.0315779 0.764077 0)
(0.0129331 1.99562 0)
(0.00995227 0.866875 0)
(0.0103579 0.664591 0)
(0.00597876 0.852043 0)
(0.0184655 0.63476 0)
(0.839103 -0.0146359 0)
(0.846371 0.0288823 0)
(0.766038 -0.00421084 0)
(0.816364 0.0371758 0)
(0.702329 -0.0131564 0)
(0.0153249 3.00067 4.00808e-19)
(0.0117085 3.00836 0)
(0.00651413 3.00255 0)
(0.0141416 2.99721 4.50474e-24)
(0.00835643 2.95853 -6.05797e-19)
(0.0151952 2.98186 0)
(0.0112019 2.90367 0)
(0.0256709 2.93025 8.90202e-25)
(0.00502131 2.82467 0)
(0.0314186 2.91596 0)
(-0.00503961 2.74573 0)
(0.302852 3.5445 0)
(-0.146214 3.62137 0)
(0.134264 3.24511 -3.10528e-19)
(-0.00984654 2.98472 0)
(-0.0225512 1.99906 0)
(-0.00714401 2.15904 4.33068e-22)
(-0.0166987 1.8991 -7.21772e-21)
(0.412687 0.138455 -1.45554e-19)
(0.313104 0.0277909 -1.4067e-19)
(0.392626 0.149527 -4.3781e-19)
(0.289842 0.0487434 -2.88738e-19)
(0.19139 0.956062 0)
(0.218775 1.32512 -1.42708e-19)
(0.372599 1.27502 2.4205e-19)
(0.987352 0.00823797 0)
(0.941279 0.00544681 0)
(1.00031 0.000430698 0)
(1.00326 0.00949576 0)
(1.00287 0.00785123 -1.13358e-18)
(0.991773 0.00988975 8.65566e-19)
(-0.00311884 0.815082 0)
(0.000419356 0.581113 0)
(-0.0217934 0.966808 0)
(-0.00201575 0.830452 0)
(0.00116705 0.56494 0)
(0.0798909 0.158512 9.454e-20)
(0.137884 0.136434 0)
(0.993362 -0.00824866 0)
(0.954486 -0.00615454 0)
(0.762087 0.0445442 0)
(0.698945 0.0565484 0)
(0.663882 -0.0233408 0)
(0.964315 -0.00461459 0)
(0.611846 0.0807471 0)
(0.441565 0.000954926 6.26391e-19)
(-0.0365231 2.86506 2.8761e-19)
(0.0422119 2.90936 0)
(0.0543145 2.88491 0)
(-0.00361738 2.69879 0)
(-0.0139327 2.98492 3.67102e-19)
(-0.0181836 2.89492 0)
(-0.0159482 2.98801 -1.14124e-18)
(-0.0132058 2.92532 3.91973e-19)
(0.0115813 1.35117 0)
(0.02951 1.3863 0)
(-0.00656688 2.12368 1.09844e-22)
(-0.00412904 2.08502 0)
(-0.025541 1.87811 0)
(0.938163 -0.00763899 0)
(0.857181 -0.00818024 0)
(0.862662 0.00566335 0)
(0.949223 -0.00782943 0)
(0.8837 -0.00736418 0)
(0.547486 1.16816 -1.03517e-19)
(0.596935 1.20684 0)
(0.406348 0.927246 1.49946e-20)
(0.345735 0.780815 0)
(0.897079 1.058 -5.62858e-20)
(1.00585 0.865364 1.14048e-19)
(0.358724 1.36357 0)
(0.517644 1.34399 0)
(0.524716 1.29304 0)
(0.123483 0.210903 -1.26934e-19)
(0.314362 0.189076 0)
(0.279665 0.0854324 8.16406e-20)
(0.983396 0.920322 0)
(1.05877 0.777769 0)
(1.07937 0.719044 -8.87309e-20)
(1.11302 0.624879 0)
(1.16254 0.411462 2.36955e-20)
(0.95766 -0.00850888 0)
(0.962372 -0.0102655 0)
(0.902006 -0.00736977 0)
(0.984349 -0.00918182 0)
(0.97484 -0.0093424 0)
(0.937445 -0.00597605 0)
(1.00018 0.00214922 0)
(1.00086 0.00142931 0)
(0.999868 0.000910147 0)
(0.0285244 2.06503 1.83006e-19)
(0.0981121 1.75506 0)
(0.0142731 2.17401 2.87082e-19)
(0.0435735 1.85981 -2.41705e-19)
(0.0968284 1.20911 -1.01799e-19)
(0.0419006 1.09022 0)
(0.120642 1.03902 0)
(0.00523998 0.927592 0)
(0.00989918 0.715995 0)
(-0.00230564 2.231 -4.93937e-22)
(0.0189285 1.99913 0)
(-0.00363204 2.23425 -2.24525e-20)
(0.016782 2.00234 4.02287e-20)
(0.00728105 0.900831 0)
(0.00501384 0.881706 0)
(0.00559461 0.685707 0)
(0.00791514 0.831988 0)
(0.00666614 0.616686 0)
(0.935873 0.00983101 0)
(0.845414 -0.0153237 0)
(0.925982 -0.000668772 0)
(0.839929 -0.012166 0)
(0.810919 0.000328331 0)
(0.900625 0.0201086 0)
(0.876906 0.0243759 0)
(0.787812 -0.00145885 0)
(0.00420183 3.06451 -3.54083e-21)
(0.0167797 3.05748 0)
(0.0153089 2.96897 0)
(0.00898808 2.87628 0)
(0.96111 3.98029 0)
(1.3058 3.24372 4.49264e-19)
(0.0689618 3.07629 0)
(-0.0232596 2.90757 0)
(0.0066138 1.4006 0)
(-0.0273017 1.70072 0)
(-0.00199199 1.54452 0)
(-0.0296444 2.56827 -1.35433e-21)
(-0.0110578 2.2579 0)
(-0.0195145 2.40475 0)
(0.00497995 1.92752 5.61083e-22)
(-0.00318711 2.23219 6.00377e-21)
(-0.00674785 2.19039 7.28595e-21)
(-0.00662038 1.91023 0)
(0.44814 0.121136 2.19999e-19)
(0.348074 0.0154119 -2.1609e-19)
(0.271905 1.5758 0)
(0.249521 0.742425 -1.27415e-19)
(0.17761 1.66748 -4.20458e-19)
(0.204146 1.20991 4.21411e-19)
(0.901631 0.00584617 0)
(0.967315 0.0107642 0)
(0.974392 0.0106877 0)
(0.923152 0.00591666 0)
(0.00385503 0.819257 0)
(-0.006695 0.812021 0)
(0.0104664 0.590836 0)
(0.216141 0.175327 2.63927e-19)
(0.182127 0.159608 -3.12463e-19)
(0.179176 0.128793 0)
(1.08834 0.0845287 1.19008e-20)
(1.0676 0.0383365 0)
(1.00443 0.0393505 0)
(0.900924 -0.0051351 0)
(0.485158 0.106323 0)
(0.533521 0.0896787 -1.00237e-18)
(0.389981 0.0112975 3.75313e-19)
(0.00917063 2.98178 3.06997e-19)
(-0.032476 2.86731 1.94574e-20)
(0.00179674 3.04967 -7.4888e-21)
(0.0208802 3.04312 2.76207e-19)
(-0.015319 2.99631 1.28643e-20)
(-0.012756 2.94948 -5.18588e-23)
(-0.0175627 3.01149 -2.36378e-19)
(0.0142446 3.02294 1.70194e-19)
(0.00675257 3.0368 -2.76103e-19)
(0.932842 -0.00210656 0)
(0.938944 -0.00316451 0)
(0.844029 -0.00767434 0)
(0.956366 0.0116014 0)
(0.942667 0.0129505 0)
(0.881148 0.00541561 0)
(0.91751 0.0162684 0)
(0.926119 0.0148385 0)
(0.838144 0.00274726 0)
(0.760907 1.43318 2.37722e-20)
(0.803404 1.52451 0)
(0.215771 0.353586 3.12786e-20)
(0.253366 0.723045 2.4896e-19)
(0.293875 0.773941 -1.49397e-19)
(0.303564 0.556708 2.90313e-19)
(0.339335 0.82152 6.61056e-19)
(0.139692 0.240758 1.50774e-19)
(0.36482 0.16931 3.05808e-19)
(0.343004 0.182597 7.97758e-20)
(0.289103 0.062749 1.52401e-19)
(1.15441 0.467312 1.30329e-20)
(1.16896 0.266998 1.11019e-20)
(0.0075142 2.22432 1.11537e-19)
(0.0420603 1.92864 0)
(0.965737 0.0306131 0)
(0.939253 0.0126789 0)
(0.866503 -0.0177357 0)
(0.0113509 3.07422 0)
(0.0206402 2.94403 5.02716e-19)
(0.0171485 2.95624 0)
(0.00671869 2.85046 -5.01029e-19)
(0.00585465 3.09183 1.18907e-19)
(0.00567172 3.08179 0)
(0.888321 1.82768 -6.84678e-20)
(1.27081 2.37724 1.17368e-19)
(0.868476 1.93128 -4.75775e-19)
(0.0202033 2.98196 -2.66501e-19)
(0.0357947 3.00196 0)
(-0.0323056 2.88062 0)
(-0.00665206 2.21194 -5.90284e-21)
(-0.00546485 2.23608 -1.46678e-20)
(0.0102363 1.9641 -3.79572e-21)
(0.279023 1.39214 4.16039e-19)
(0.203645 0.539346 -2.83235e-19)
(0.0535475 1.99285 3.16371e-19)
(0.153577 1.8859 -3.80291e-19)
(0.14931 1.48521 4.07085e-20)
(0.00534579 3.11807 -7.03101e-19)
(0.0116216 3.11881 7.96488e-19)
(-0.00979551 2.98031 3.38359e-19)
(-0.0044846 2.97759 -3.20422e-19)
(-0.0218555 2.88137 -3.44797e-19)
(0.00749923 3.0985 -8.85162e-19)
(0.000540774 3.10556 8.99884e-19)
(0.294542 0.733654 0)
(0.262082 0.732456 -5.16429e-19)
(0.112064 0.250419 2.30048e-19)
(0.356532 0.943392 4.49858e-19)
(0.186187 0.2808 -6.93977e-19)
(1.16819 0.175225 3.10416e-20)
(1.1699 0.315762 0)
(1.15412 0.126051 -7.91547e-21)
(8.48532e-06 2.24285 -7.65381e-22)
(0.00145926 2.2356 0)
(0.0246912 1.96614 0)
(0.352238 1.29682 -1.48801e-19)
(0.379544 1.13775 -3.24146e-19)
(0.190017 0.373282 5.76133e-19)
(1.00554 -0.0111749 0)
(1.00751 -0.00743568 2.10509e-19)
(0.00977562 1.325 0)
(-0.0142682 1.29684 0)
(1.00198 0.00345198 7.99891e-22)
(1.0038 0.0100438 4.25919e-19)
(-0.016043 2.55259 1.78169e-21)
(-0.0237329 2.59466 0)
(0.0330484 3.17327 1.88235e-19)
(0.386684 3.47819 0)
(1.17562 0.639859 -2.85263e-20)
(1.01321 0.0136045 -7.64893e-22)
(1.02127 -0.010659 0)
(1.00176 0.000116414 2.68231e-23)
(0.103991 1.35373 0)
(0.152709 2.57032 0)
(0.0230431 1.29251 0)
(0.00324325 2.62432 2.31441e-20)
(-0.0189208 2.58383 1.00931e-20)
(1.00148 0.0291659 1.00015e-21)
(1.0622 0.00336353 0)
(1.09362 0.0224223 0)
(-0.0232272 1.74384 0)
(-0.0215243 2.59329 0)
(0.00365275 1.28754 0)
(0.307533 1.46661 -6.52005e-20)
(1.01125 -0.00988309 0)
(1.0094 -0.0153646 0)
(1.00241 0.000640804 2.67375e-19)
(1.00538 -0.00478176 -3.17402e-19)
(1.0012 -0.00105152 0)
(-0.00741804 1.4628 0)
(-0.00285576 1.36543 0)
(0.00796804 1.41928 0)
(0.00352246 1.27522 0)
(-0.00344399 1.25354 0)
(-0.00125666 1.22946 0)
(1.03434 -0.00692456 0)
(1.02074 0.0161383 -3.55598e-22)
(0.809101 1.2543 9.29322e-20)
(1.00221 0.000403541 -2.66603e-19)
(1.00402 0.00534676 3.17159e-19)
(1.00118 0.00213032 0)
(1.01342 0.0105707 2.64554e-19)
(1.00855 0.00868375 -3.20475e-19)
(1.00929 0.0156798 0)
(-0.0259611 2.62188 0)
(-0.0261981 2.60213 -3.82422e-21)
(-0.0247308 2.61571 2.9053e-21)
(1.22985 0.251461 2.53406e-19)
(1.15643 0.0782853 0)
(0.0427031 3.07388 -4.08402e-19)
(0.0646513 2.85344 -2.91412e-20)
(0.140775 3.19736 6.19983e-19)
(0.138403 3.22777 -7.95868e-20)
(0.13299 3.23431 0)
(0.0193591 3.13604 1.08596e-19)
(0.0742599 3.16161 3.98362e-19)
(0.0681572 3.18523 -2.0653e-19)
(0.0231524 3.12864 0)
(0.635297 0.280898 0)
(0.557837 0.328416 0)
(1.1251 0.668979 6.78999e-20)
(1.14695 0.797866 -6.62429e-20)
(1.19117 0.556787 0)
(1.23665 0.499538 0)
(1.01632 0.0136802 -4.99558e-19)
(1.01512 0.0148258 6.26142e-19)
(1.02518 -0.0101391 0)
(1.02314 -0.0124263 0)
(1.00639 0.00260282 0)
(1.01012 0.00361038 0)
(1.0046 0.00186682 0)
(1.00984 0.00608219 0)
(1.00803 0.00630802 0)
(1.00442 0.00442903 0)
(0.0919918 1.35021 0)
(0.0882549 1.31999 0)
(0.122516 1.3855 0)
(0.144592 1.40006 0)
(0.146887 2.59405 0)
(0.187385 2.65849 -1.88951e-19)
(0.0993816 2.65071 0)
(0.0907031 2.65163 9.13712e-20)
(0.0421138 2.68122 -7.32399e-20)
(0.015862 1.3093 0)
(0.0199666 1.23424 0)
(0.0221326 1.31459 0)
(0.0237684 1.26019 0)
(0.00374258 1.97764 -1.04669e-20)
(-0.0181805 2.61223 2.6566e-21)
(-0.00770721 2.66556 1.95407e-20)
(-0.0157746 2.68773 0)
(-0.0220881 2.61925 -2.18563e-20)
(-0.023054 2.61376 -6.83617e-21)
(0.0147326 1.97749 9.52048e-21)
(-0.0051666 2.39678 -3.43861e-21)
(-0.0117184 2.41886 -2.32283e-20)
(1.0114 0.0370183 5.02596e-19)
(1.00666 0.0170752 -6.25025e-19)
(1.00264 0.0435251 -5.06562e-19)
(0.981195 0.023582 6.43479e-19)
(1.06334 0.00764999 0)
(1.04861 -0.00895613 0)
(1.09246 0.031512 0)
(1.0729 0.0116921 0)
(1.07096 0.000708076 0)
(1.13311 0.0827797 0)
(1.10807 0.0426143 0)
(1.11386 0.0279587 0)
(-0.0199496 2.44485 -2.98162e-22)
(-0.00864909 2.01853 0)
(-0.0138591 2.22629 0)
(-0.0226959 2.61453 -1.34268e-21)
(-0.0193087 2.62277 -1.24635e-22)
(0.00680852 1.56105 -3.07722e-21)
(-0.00170722 1.49397 3.09773e-21)
(-0.00342159 1.37971 0)
(-0.00662765 1.38675 0)
(-0.00869467 1.38233 0)
(0.00772698 1.28993 0)
(0.0144576 1.2313 0)
(0.377647 1.4873 1.06141e-19)
(0.431957 1.4857 5.61884e-20)
(0.594174 2.43949 -1.01707e-19)
(0.403056 2.53661 2.95651e-19)
(0.345009 2.06608 3.14238e-20)
(1.02111 -0.00816091 0)
(1.01545 -0.00987674 0)
(1.01497 -0.016073 0)
(1.00736 -0.00123357 0)
(1.00494 -0.00105227 0)
(1.00771 -0.00463629 0)
(1.00918 -0.00374896 0)
(1.01408 -0.00447661 0)
(1.02142 0.0163101 4.90744e-19)
(1.01815 0.0161713 -6.23236e-19)
(1.02173 0.0182434 -4.91318e-19)
(1.01959 0.0170538 6.16484e-19)
(0.772325 1.30621 0)
(0.712768 1.35641 9.13805e-20)
(0.877998 1.21572 3.2838e-20)
(0.93905 1.15012 -4.36635e-20)
(1.15796 2.60184 1.25309e-19)
(0.802997 0.114711 2.44595e-19)
(1.1528 0.110514 0)
(1.20824 0.193446 -2.03021e-19)
(1.19803 0.144295 -8.60446e-21)
(1.00248 0.148899 0)
(0.156236 2.9618 2.12807e-19)
(0.111578 2.8688 -5.46403e-19)
(0.0268284 2.38138 3.38919e-19)
(0.0960208 -0.0372924 -1.43294e-19)
(0.335607 3.42142 -8.6342e-20)
(0.197604 3.32036 0)
(0.22798 3.35353 1.12365e-19)
(0.254945 3.04184 -7.0438e-19)
(0.358793 3.20216 0)
(0.00646673 3.12047 2.07587e-20)
(0.0171923 3.12891 -2.4718e-19)
(0.0153716 3.12472 3.62511e-19)
(0.0345068 3.13974 0)
(0.0327547 3.14991 0)
(1.19146 2.64078 0)
(0.550643 0.831928 -2.15702e-19)
(1.06899 0.96974 5.41924e-21)
(0.972606 1.07028 0)
(0.829015 0.954236 -4.91805e-20)
(1.06145 0.878865 1.055e-20)
(0.34461 0.379603 -3.82679e-19)
(0.677476 0.313459 -7.91302e-21)
(0.632308 0.222388 1.73872e-19)
(0.574223 0.3751 1.28283e-20)
(0.487638 0.325707 -5.17778e-19)
(0.649772 0.331474 0)
(0.709531 0.413672 2.93385e-19)
(0.715367 0.410578 0)
(0.608154 0.364917 0)
(0.572263 0.270945 0)
(0.808818 0.606337 1.75048e-19)
(1.22137 0.28118 -2.1837e-19)
(1.22876 0.411825 0)
(1.24894 0.349261 0)
(0.730267 0.189878 2.58306e-19)
(0.857304 0.538971 -1.60826e-19)
(0.75322 0.508683 2.85352e-19)
(0.954878 0.426602 -3.11878e-19)
(1.01994 0.0148363 3.34096e-19)
(1.01808 0.01444 -3.36327e-19)
(1.01589 0.0162001 0)
(1.03597 -0.00617784 0)
(1.02961 -0.00862494 -3.1514e-19)
(1.02751 -0.0126189 3.1265e-19)
(1.02497 0.00991656 0)
(1.02377 0.0134058 0)
(1.01119 0.00401239 0)
(1.0143 0.00894581 0)
(1.01475 0.00412424 0)
(1.01386 0.00296799 0)
(0.0614167 1.3329 0)
(0.062848 1.28732 0)
(0.141383 1.35478 -9.57377e-21)
(0.276829 1.4649 3.3616e-20)
(0.168094 1.4346 7.19645e-20)
(0.210386 1.4461 -1.17138e-19)
(0.16459 1.37813 0)
(0.129145 1.5936 -3.42269e-20)
(0.109289 1.56211 0)
(0.346933 2.01243 -4.54149e-20)
(0.347915 2.3595 2.54757e-19)
(0.190414 1.44747 2.99295e-20)
(0.250143 1.3711 4.09615e-21)
(0.196771 1.3609 -3.29238e-21)
(0.259311 1.31865 -5.24757e-20)
(0.22837 1.57697 0)
(0.259194 1.60665 5.48965e-20)
(0.0299603 2.26324 -1.70477e-20)
(0.0447839 2.6693 0)
(0.0626172 2.40144 6.97388e-20)
(0.0584733 2.42406 0)
(0.071043 2.66284 -1.01679e-19)
(0.0535289 2.69767 0)
(0.0295652 1.40594 -1.16037e-21)
(0.0346037 1.45784 0)
(0.0294347 1.37604 0)
(0.0247307 1.37796 1.30629e-21)
(0.0018282 2.65252 -8.60524e-21)
(0.0314036 2.69673 8.3441e-20)
(0.0129193 2.72149 6.32303e-22)
(0.00659933 1.82588 8.32263e-21)
(-0.00251339 1.67366 3.76894e-21)
(0.0177261 1.28263 0)
(0.0255419 1.2151 0)
(0.0505631 1.57092 4.85868e-21)
(0.0285493 1.44217 3.0638e-21)
(0.0386704 1.50827 -3.76252e-21)
(0.0400885 1.59528 0)
(-0.0248469 2.28006 3.61932e-20)
(-0.0315543 2.56198 -1.64697e-20)
(-0.00804962 2.45398 -2.76088e-22)
(-0.00122256 1.84066 -1.00486e-20)
(-0.0231071 2.50279 -3.34095e-21)
(-0.0180908 2.44643 1.37018e-20)
(1.01964 0.0211661 -3.31744e-19)
(1.01579 0.0268328 3.33891e-19)
(1.01473 0.0164736 0)
(1.01208 0.0709928 4.64859e-19)
(0.990214 0.0605507 -5.227e-19)
(0.947414 0.0418524 5.86609e-19)
(1.01398 0.105386 -6.20312e-20)
(1.04212 -0.00602398 0)
(1.05044 -0.00182415 3.01868e-19)
(1.0386 -0.0104912 -3.01221e-19)
(1.07012 0.041652 -1.7822e-20)
(1.06381 0.0218009 1.53663e-19)
(1.06355 0.052532 0)
(1.05338 0.0474202 -5.51218e-20)
(1.03272 0.0404287 0)
(1.02633 0.0373422 0)
(1.02757 0.013568 0)
(1.02407 0.0161397 0)
(1.03956 0.0323068 1.13325e-19)
(1.03879 0.025744 -2.50114e-19)
(1.04991 0.0316268 -1.20658e-19)
(1.04867 0.0317845 -1.32708e-19)
(1.0687 0.0615882 2.59117e-19)
(1.09229 0.0508673 0)
(1.10306 0.0925803 0)
(-0.020044 2.27784 8.78218e-21)
(-0.013263 2.02101 -7.21349e-22)
(-0.0142803 2.02147 0)
(-0.0238031 2.45432 -9.13324e-21)
(-0.0165879 2.41163 9.91018e-22)
(-0.0300792 2.48557 8.8528e-22)
(-0.0196848 2.62866 5.5953e-21)
(-0.0216461 2.57047 -7.14526e-22)
(-0.0169895 2.51976 2.18319e-21)
(-0.0150716 2.6249 -5.48718e-22)
(-0.0211464 2.62591 1.44867e-21)
(0.00282298 1.47758 -4.90242e-22)
(0.0163232 1.61061 -2.5482e-21)
(0.356813 1.42935 -4.30421e-20)
(0.356982 1.37043 2.19425e-20)
(0.65315 1.40969 -8.83329e-20)
(0.522343 1.47647 -5.44665e-20)
(0.58716 1.44313 0)
(0.582752 2.41763 9.56568e-20)
(0.655167 2.4159 1.45815e-19)
(0.403593 2.5138 3.72331e-20)
(0.405571 2.54726 -2.58576e-19)
(0.519455 2.49541 2.54007e-19)
(0.543391 2.45573 0)
(0.479696 2.51106 -2.39193e-19)
(0.236803 2.58565 4.98469e-19)
(0.346879 2.56636 -3.43249e-20)
(0.28064 2.64903 -6.79342e-19)
(0.933493 2.37762 3.24123e-19)
(0.827632 2.38596 0)
(1.01092 0.000275113 1.07721e-20)
(1.01524 -0.00546586 -8.92476e-21)
(1.01757 -0.00345531 -1.60781e-19)
(1.01487 -0.000922898 1.62538e-19)
(1.01221 0.00104109 0)
(0.638042 1.27859 0)
(0.651966 1.17416 0)
(0.756673 1.08096 0)
(0.651392 1.13283 0)
(1.1861 2.61193 2.69651e-20)
(1.07327 2.36128 0)
(0.852489 2.1758 1.65081e-21)
(0.822255 2.44419 0)
(0.922749 2.53633 -1.74609e-19)
(0.960284 2.49597 1.13426e-19)
(0.816613 0.176114 0)
(0.778909 0.144807 6.62229e-20)
(0.921391 0.143504 3.89733e-19)
(0.833913 0.145897 -1.44363e-19)
(0.8037 0.0856093 -4.49284e-19)
(1.07305 0.232092 -3.86648e-19)
(0.994971 0.297455 -6.47549e-21)
(0.926314 0.28527 3.58504e-19)
(1.00392 0.222445 3.00822e-19)
(0.953013 0.187381 -5.17276e-19)
(0.920808 0.188242 6.44471e-20)
(0.95403 0.24737 -1.37666e-19)
(0.934629 0.215037 0)
(0.992513 0.18211 2.55086e-19)
(1.04567 0.185566 0)
(1.04148 0.215596 0)
(1.09996 0.118313 1.21539e-19)
(1.07448 0.175252 -6.0166e-21)
(1.07037 0.232233 -6.52787e-20)
(1.10188 0.201717 0)
(1.02201 0.0451251 2.57389e-19)
(1.04224 0.0577085 3.18152e-19)
(1.03443 0.0438466 -2.52741e-19)
(1.04319 0.0647064 -2.13766e-19)
(1.01771 0.0726256 -3.27859e-19)
(0.988771 0.154345 0)
(1.00229 0.103965 0)
(0.968203 0.0686067 -2.08493e-19)
(0.913237 0.0891872 8.13885e-20)
(1.03874 0.100886 2.96211e-19)
(1.06897 0.117746 -3.48775e-19)
(1.07666 0.149649 3.08384e-19)
(1.02843 0.144347 0)
(1.07271 0.107565 0)
(1.05579 0.0862856 -1.42402e-19)
(1.04548 0.0943915 -2.42128e-19)
(0.577896 1.07909 6.07494e-20)
(0.622978 1.39028 -2.49382e-20)
(1.16058 2.73704 -9.85099e-20)
(1.2375 3.07332 -9.87305e-22)
(1.25001 2.70932 -6.11409e-20)
(1.28037 2.70712 -3.20721e-20)
(1.16695 2.35093 8.19951e-21)
(1.22605 2.96711 -5.65637e-20)
(1.24775 2.9359 1.2363e-19)
(1.24309 3.22803 -7.9327e-20)
(1.3652 2.96398 9.12631e-20)
(1.30275 2.88851 0)
(0.558125 0.836761 -2.05706e-20)
(0.110512 1.23897 2.51753e-19)
(0.559201 0.428787 2.50753e-19)
(0.368385 0.167855 2.70692e-19)
(0.514567 0.373406 2.93528e-19)
(0.554884 0.456945 -4.84059e-19)
(0.547123 0.473432 3.96668e-19)
(0.489066 0.382722 -1.49598e-19)
(0.399777 0.310087 3.36147e-19)
(0.734178 0.25381 -1.47712e-19)
(0.695257 0.276971 0)
(0.668047 0.198393 3.31287e-21)
(0.737943 0.50833 1.54061e-19)
(0.713454 0.470197 -5.63657e-19)
(0.611307 0.465445 5.00662e-21)
(0.625054 0.450339 0)
(0.675394 0.727138 1.67907e-19)
(0.851315 0.777822 1.633e-19)
(0.764668 0.861809 -1.90357e-19)
(0.888231 0.805554 -6.57203e-20)
(0.91143 0.83722 -1.69875e-20)
(0.91757 0.838833 1.74526e-20)
(0.859156 0.637925 -2.91297e-19)
(0.933841 0.705168 6.12419e-20)
(0.986955 0.712207 0)
(0.968972 0.681138 -8.65914e-20)
(1.02376 0.320747 8.99523e-20)
(1.12446 0.292047 1.27836e-19)
(1.06007 0.267618 1.5498e-19)
(1.01477 0.363397 -1.82071e-19)
(1.06049 0.423062 0)
(1.1031 0.409078 0)
(0.920072 0.356166 2.85128e-21)
(0.842942 0.294624 0)
(0.883774 0.292346 1.68064e-19)
(0.914026 0.292503 -3.46176e-21)
(0.945673 0.427167 8.69745e-19)
(0.906629 0.486634 2.27207e-19)
(0.907515 0.451097 -2.41493e-19)
(0.823762 0.435166 2.59019e-19)
(0.808939 0.432367 1.55978e-19)
(0.774695 0.411985 -1.51868e-19)
(1.02785 -0.000336015 2.65208e-19)
(1.01986 5.82846e-06 0)
(1.01849 0.00088779 1.75755e-19)
(1.02121 -0.00211869 -3.96203e-19)
(1.02209 0.00447757 1.92945e-19)
(1.02043 0.0112794 -4.06042e-19)
(1.02141 0.0105888 0)
(1.02101 0.0105653 -8.3901e-20)
(1.01589 0.00781532 2.10154e-19)
(1.01682 0.0103491 -1.06324e-19)
(1.0175 0.00963291 7.82788e-20)
(0.0277892 1.31087 0)
(0.0318351 1.35279 0)
(0.0403086 1.31082 0)
(0.0405247 1.26795 0)
(0.0653194 1.3762 4.22789e-21)
(0.0742215 1.34538 2.23913e-21)
(0.115892 1.50339 -1.27758e-20)
(0.0888301 1.35725 5.56791e-21)
(0.0334029 1.44763 -1.31762e-20)
(0.0370631 1.44029 1.01693e-20)
(0.0594064 1.35934 -1.58868e-21)
(0.053452 1.36062 -1.64368e-22)
(0.0450654 1.33718 -1.26377e-22)
(0.039044 1.35963 -1.12152e-21)
(0.106726 2.37098 -7.52052e-20)
(0.0910871 2.42035 0)
(0.166268 2.06325 4.8224e-20)
(0.111272 1.70612 1.96049e-20)
(0.233856 2.05313 -3.87126e-20)
(0.204418 2.43876 0)
(0.26832 2.39275 -2.50726e-19)
(0.304476 2.39117 1.77292e-19)
(0.220702 2.00626 -1.12932e-19)
(0.149401 2.16687 7.58343e-20)
(0.151569 2.28192 0)
(0.0155061 1.87693 -1.51388e-20)
(0.000627292 2.39639 -3.4546e-20)
(0.00635988 2.15081 0)
(0.0112081 2.45827 -5.5349e-21)
(0.0264971 2.30349 1.22647e-20)
(0.019017 1.38811 -3.41711e-22)
(0.022153 1.37413 6.76268e-21)
(0.0225076 1.37834 -3.1923e-21)
(0.023915 1.3781 -8.46812e-22)
(0.0290525 1.41015 0)
(0.0189149 1.35987 0)
(0.0144061 1.28274 -5.51074e-21)
(0.0140483 1.35104 1.16591e-21)
(0.0190622 1.35167 0)
(0.0165355 1.27611 -3.83045e-21)
(0.0269669 1.2102 8.54872e-21)
(1.03981 0.0106718 0)
(1.04558 0.00724106 -2.81136e-20)
(1.0385 0.020989 -2.01641e-19)
(1.0479 0.0196895 0)
(1.05155 0.0195641 0)
(1.03648 0.0112937 -2.81925e-21)
(1.03124 0.010845 3.24975e-19)
(1.03157 0.0164161 3.97477e-19)
(1.02563 0.0203511 0)
(1.02308 0.0207125 0)
(1.03489 0.0253113 2.02018e-19)
(1.02611 0.026232 0)
(1.02448 0.0260291 0)
(-0.0185177 2.01978 0)
(0.0195517 1.64963 -3.53872e-21)
(0.00392507 1.75926 -1.52751e-20)
(0.00976982 1.36186 0)
(-0.00896298 1.54162 -1.56974e-21)
(0.0077514 1.44302 9.80208e-22)
(0.00787616 1.37093 0)
(0.379934 1.67345 0)
(0.362976 1.29269 -4.20604e-20)
(0.307253 1.34041 0)
(0.416029 1.29105 1.80834e-20)
(0.466349 1.45613 0)
(0.446035 1.40154 3.49134e-21)
(1.03139 2.68281 -6.895e-21)
(0.958879 2.41173 -3.96135e-19)
(0.908164 2.19458 4.53352e-19)
(0.840806 2.37826 1.12093e-19)
(0.841039 2.49781 0)
(0.913133 2.49097 0)
(0.915758 2.37266 0)
(0.895828 2.35941 -4.10421e-19)
(0.684972 2.46034 -1.70849e-19)
(0.796027 2.45603 -4.14005e-20)
(0.808576 2.42573 3.27744e-20)
(0.68662 2.39216 0)
(0.792777 2.39121 0)
(0.7478 2.4013 -1.56949e-19)
(0.765258 2.49302 0)
(0.622663 1.10627 0)
(0.486964 0.917635 -2.08047e-19)
(0.572223 0.945581 -1.34649e-20)
(0.527693 1.05169 0)
(0.530718 1.00112 3.14902e-19)
(0.787431 0.887733 -5.50417e-20)
(0.790666 1.0123 0)
(0.763929 0.960708 8.19623e-20)
(0.648082 1.04318 0)
(0.656879 0.946464 0)
(1.1668 2.75278 -1.0424e-19)
(1.14364 2.81815 -4.79554e-20)
(0.938985 2.33121 5.60327e-20)
(0.899872 2.31092 -3.90769e-20)
(1.12987 2.72407 0)
(1.08239 2.69251 4.92472e-20)
(1.08888 2.47747 -1.38355e-19)
(0.980659 2.23356 -1.39596e-20)
(0.495789 1.35221 0)
(0.506574 1.07272 -5.32455e-20)
(0.566294 1.15101 0)
(0.861765 0.231158 0)
(0.784526 0.189014 0)
(0.722126 0.148195 0)
(0.856739 0.234137 -2.65619e-19)
(0.75585 0.224708 1.5537e-19)
(0.929098 0.075352 -1.69131e-19)
(0.944888 0.121519 0)
(0.923567 0.134913 7.23678e-20)
(0.862511 0.110913 2.91504e-19)
(0.83173 0.0700468 -1.82827e-19)
(1.17296 3.36246 -3.07366e-19)
(1.22464 3.28492 0)
(1.13838 3.38034 -6.03618e-19)
(0.637464 3.53873 5.27767e-19)
(0.849059 3.10612 2.09071e-20)
(0.516198 0.841209 2.52333e-19)
(0.420746 0.836621 0)
(0.32039 0.478783 -6.23132e-20)
(0.460379 0.671294 3.53122e-19)
(0.553248 0.442399 -8.5756e-20)
(0.522135 0.502028 9.74697e-20)
(0.660983 0.519067 2.11497e-19)
(0.696216 0.538805 0)
(0.654757 0.596671 0)
(0.609767 0.535881 0)
(0.986419 0.598316 4.28714e-20)
(0.911063 0.534994 -2.19385e-19)
(0.933773 0.566003 1.70144e-19)
(0.966032 0.507672 -1.70554e-19)
(1.07961 0.480817 0)
(1.06914 0.562694 -4.30571e-20)
(0.847686 0.39202 -3.53782e-19)
(0.851901 0.381458 -4.29473e-19)
(0.795137 0.375228 2.74412e-19)
(0.795078 0.351887 -2.79933e-19)
(0.844073 0.314923 -2.19533e-19)
(0.792272 0.313342 2.70062e-19)
(1.0267 0.00562407 -2.06218e-19)
(1.02634 0.00602141 4.27141e-19)
(1.02899 -0.000600903 2.5703e-19)
(1.03327 0.000833868 -3.11961e-19)
(1.03313 0.00779575 0)
(1.02997 0.00865552 -5.11048e-19)
(0.0618192 1.63753 1.09884e-20)
(0.0450692 1.57084 0)
(0.0863219 1.68371 7.8334e-20)
(0.0946123 1.6663 -6.98492e-20)
(0.0886524 1.519 2.38621e-20)
(0.087805 1.50748 0)
(0.0206153 1.67183 0)
(0.000856662 1.47457 -1.03482e-21)
(0.00796788 1.41878 9.29461e-22)
(0.000910951 1.53695 3.07582e-21)
(0.00992193 1.87752 -1.7072e-21)
(-0.00700489 1.92817 2.70753e-21)
(0.496251 1.37077 -1.13608e-19)
(0.49105 1.37732 1.2246e-19)
(0.443418 1.28945 -1.83323e-20)
(0.43305 1.28848 3.39848e-21)
(0.625365 1.2986 0)
(0.543765 1.38638 3.71104e-20)
(0.560281 1.39749 -3.60123e-20)
(0.455121 1.27547 1.78171e-20)
(0.51093 1.2332 0)
(0.556198 1.19583 0)
(0.646536 2.41816 2.56419e-19)
(0.669823 2.46139 5.26432e-19)
(0.708866 2.47525 -3.61158e-19)
(0.607024 2.45608 -8.56806e-20)
(0.561668 2.54239 1.22218e-19)
(0.522297 2.52385 -3.15986e-19)
(0.974515 2.37764 -2.52351e-19)
(1.01065 2.38763 0)
(0.918264 2.17364 -2.94096e-19)
(1.05279 2.67311 0)
(1.05591 2.65988 0)
(0.602902 2.24996 -7.14433e-20)
(1.02931 3.15551 4.66054e-20)
(0.896523 3.01493 1.08546e-20)
(0.283507 0.893537 0)
(0.319097 0.731522 -1.32912e-19)
(0.462215 0.70151 -1.32944e-19)
(0.397776 1.97725 0)
(0.478493 2.78504 -1.48012e-20)
(0.433161 2.56843 0)
(0.691644 0.664432 -3.5406e-19)
(0.77899 0.680126 4.7487e-19)
(0.806285 0.614793 -4.65854e-19)
(0.679699 0.628846 -4.57248e-20)
(0.730277 0.585335 -1.87288e-19)
(1.0147 2.76107 -3.51991e-20)
(1.0478 2.83233 -5.00128e-20)
(0.654377 2.13095 2.95812e-19)
(0.582768 1.70967 -2.04785e-19)
(0.711438 1.90381 -1.74855e-19)
(0.996972 2.46627 -4.58121e-20)
(0.998257 2.45347 1.07629e-19)
(0.666519 1.86907 9.77761e-21)
(0.460809 1.33301 6.2923e-20)
)
;

boundaryField
{
    wall-4
    {
        type            noSlip;
    }
    velocity-inlet-5
    {
        type            fixedValue;
        value           uniform (1 0 0);
    }
    velocity-inlet-6
    {
        type            fixedValue;
        value           uniform (0 3 0);
    }
    pressure-outlet-7
    {
        type            zeroGradient;
    }
    wall-8
    {
        type            noSlip;
    }
    frontAndBackPlanes
    {
        type            empty;
    }
}


// ************************************************************************* //
