/*--------------------------------*- C++ -*----------------------------------*\
| =========                 |                                                 |
| \\      /  F ield         | OpenFOAM: The Open Source CFD Toolbox           |
|  \\    /   O peration     | Version:  4.0                                   |
|   \\  /    A nd           | Web:      www.OpenFOAM.org                      |
|    \\/     M anipulation  |                                                 |
\*---------------------------------------------------------------------------*/
FoamFile
{
    version     2.0;
    format      ascii;
    class       volScalarField;
    location    "27";
    object      p;
}
// * * * * * * * * * * * * * * * * * * * * * * * * * * * * * * * * * * * * * //

dimensions      [0 2 -2 0 0 0 0];

internalField   nonuniform List<scalar> 
918
(
0.266913
0.924371
0.0226452
0.266071
-0.0114062
0.89202
-0.796343
0.439906
0.246718
-0.369839
-0.394421
0.237743
0.752875
0.519881
-1.4111
-0.266389
0.393769
-0.67313
0.246057
-0.117163
0.486963
0.253226
0.256259
0.246664
0.310285
0.505403
0.633418
-0.00233433
0.0164625
-0.00798507
-0.0193864
-0.0881957
-0.112188
0.775366
0.826001
0.84857
0.215808
0.0544626
-0.635592
-0.720591
-0.710112
-0.842783
0.433581
0.437681
-0.460715
0.441566
0.453448
0.234459
0.246055
0.247017
0.248139
0.247054
0.2485
0.143715
-0.371955
-0.411085
-0.351265
-0.339404
-0.188835
-0.380263
-0.3552
-0.408367
-0.399401
0.168015
0.235304
0.23286
0.242921
0.250702
0.86315
0.834162
0.859795
0.776809
0.791607
0.730555
0.702513
0.53992
0.561199
0.507089
0.494198
-1.83845
-2.80295
-0.82052
-0.567604
-0.00825691
-0.284738
-0.295464
0.384064
0.386219
0.392575
0.407794
0.792834
-0.659968
-0.817926
0.24582
0.244796
0.253
0.253344
0.250504
0.248583
-0.169579
-0.229705
-0.0352155
-0.0871434
-0.0744866
0.472203
0.468672
0.248359
0.244983
0.256359
0.277609
0.269593
0.00941834
0.314738
0.330381
0.319475
0.490331
0.487224
0.494434
0.607817
0.571797
0.670762
0.694067
0.00450284
-0.000391768
-0.258844
-0.154342
-0.190901
0.21185
0.203933
0.229946
0.219025
0.221435
-0.0284587
-0.162959
0.148456
0.174423
-0.544729
-0.621767
-0.724521
-0.745719
-0.8607
0.297496
0.423161
0.423584
-0.469506
-0.400561
-0.538828
-0.314112
-0.385111
0.224837
0.231781
0.226109
0.241763
0.236506
0.238096
0.250369
0.24745
0.24895
0.202094
0.302904
0.0766052
0.0415946
-0.534337
-0.427055
-0.51881
-0.326346
-0.331856
-0.193299
-0.161138
-0.203247
-0.193042
-0.331899
-0.337773
-0.329869
-0.397503
-0.370448
0.162255
0.152229
0.180771
0.187736
0.227497
0.228321
0.230557
0.229318
0.652606
0.675166
0.683698
0.657145
-3.82664
-6.89542
-0.239142
-0.0983327
-0.0108738
-0.00367173
-0.00226918
0.00226789
0.000380258
-0.0141233
-0.206268
-0.211489
-0.261787
-0.248935
0.368014
0.37148
0.699993
0.687754
0.667396
0.615531
0.233963
0.236123
0.241644
0.237143
-0.356368
-0.28737
-0.314824
0.450007
0.460952
0.459742
-0.0260821
-0.110326
0.0559422
0.082552
0.353075
0.337474
0.353367
0.381906
0.418872
0.700589
0.718548
0.71872
0.726779
0.7718
0.78468
0.750526
0.192935
0.201907
0.197516
0.233158
0.230835
0.23173
0.227008
0.228565
0.22565
-0.335136
-0.69869
0.250039
0.265056
0.227329
0.247961
0.364608
0.443002
0.403471
0.412826
0.416612
-0.245794
-0.310929
-0.00266742
-0.0413846
0.106317
0.140531
0.120595
0.623797
0.58538
0.635371
0.608387
0.568671
0.594483
-0.738691
-1.98826
-1.2426
0.261203
0.0701202
0.159308
-0.205796
-0.182905
-0.187267
0.664887
0.75988
0.350692
0.53126
0.582411
0.456385
0.487203
0.546054
0.471497
0.50523
0.538187
0.517514
0.273866
0.264098
0.250859
0.516312
0.56016
-0.131768
-0.179429
-0.238762
-0.147478
-0.0949411
-0.118269
0.724131
0.61755
0.693311
0.244546
0.245145
-0.0148418
-0.0425837
0.249277
0.249476
-0.0241607
-0.0875168
0.14253
-1.11075
-0.15313
0.237359
0.227958
0.244646
-0.359429
0.109199
-0.37232
-0.183906
-0.262836
0.23568
0.177749
0.141645
-0.0138878
-0.294776
-0.192229
-0.490558
0.242043
0.240214
0.244164
0.24528
0.245883
-0.0370672
-0.0383885
-0.0239743
-0.189805
-0.102536
-0.105143
0.209831
0.226054
-0.449899
0.244326
0.246492
0.246332
0.239167
0.245036
0.24294
-0.187152
-0.126024
-0.244561
-0.0349919
0.0800796
0.391763
0.496426
0.357335
0.124769
-0.122124
0.289482
0.355995
0.258192
0.417006
0.412144
0.431805
-0.0872161
-0.244345
-0.0833647
-0.140111
0.235567
0.233926
0.226294
0.223397
0.239627
0.237769
0.242245
0.239127
0.241991
0.243444
-0.318222
-0.34671
-0.354876
-0.419831
0.0663414
0.329505
-0.00265676
0.0456493
-0.128576
-0.416086
-0.387119
-0.350915
-0.334649
-0.282097
-0.266765
-0.205672
-0.197126
-0.291079
-0.258352
-0.347689
-0.297019
-0.31689
0.229815
0.228823
0.234649
0.24131
0.186968
0.190633
0.158161
0.176873
0.16179
0.109049
0.141893
0.117188
-0.0184496
-0.0105255
-0.00314531
-0.291634
-0.338235
-0.152266
-0.0853582
-0.115695
-0.0841835
-0.103973
-0.292835
-0.308451
-0.453472
-0.569965
0.691565
0.636327
-0.187236
0.231164
0.237628
0.234318
0.239092
0.242201
0.243164
0.240915
0.237467
0.226712
0.228691
0.224859
0.225093
-0.384807
-0.527366
-0.35511
-0.415623
-0.158807
0.346541
0.0920925
0.0217619
0.0239764
0.243924
0.658525
0.430493
0.430337
0.471472
-0.641851
-0.252673
-0.57357
0.0184312
-0.161148
0.38887
0.440064
0.463265
0.408497
0.360041
-0.540482
0.248266
-0.331385
-0.289584
-0.0933109
-0.193302
0.439642
0.39626
0.40225
0.418635
0.439357
0.398156
0.377702
0.375691
0.41516
0.420758
0.212935
6.30384e-07
-0.0571225
-0.0869322
0.381595
0.25415
0.308337
0.224591
0.230257
0.23318
0.231653
0.214591
0.221806
0.217477
0.223067
0.226077
0.235604
0.23613
0.231161
0.233626
-0.314144
-0.320421
-0.29074
-0.411291
-0.402268
-0.462474
-0.334529
-0.21446
-0.243175
-0.0521007
0.0310788
-0.241279
-0.343257
-0.312813
-0.300529
-0.117347
-0.0586073
-0.190783
-0.104644
-0.106199
-0.124576
-0.00271052
-0.00733353
-0.354749
-0.303891
-0.309267
-0.346991
-0.226334
-0.173313
-0.152255
-0.441622
-0.420944
-0.412037
-0.398326
-0.284042
-0.292048
-0.294588
-0.239156
-0.238797
-0.248815
-0.312569
-0.48793
-0.343939
-0.382014
0.224976
0.226429
0.226494
0.2365
0.248673
0.263785
0.228987
0.208163
0.199402
0.202193
0.177325
0.187157
0.18213
0.194669
0.214177
0.221297
0.221368
0.223723
0.207452
0.209279
0.196808
0.199386
0.178598
0.161079
0.149496
-0.140456
-0.0887809
-0.137478
-0.11543
-0.0488919
-0.0754868
-0.316438
-0.312688
-0.328336
-0.326528
-0.316382
-0.205442
-0.214856
-0.365308
-0.288337
-0.471516
-0.504609
-0.578705
0.598965
0.697877
0.529643
0.307173
0.310637
0.544727
0.633471
0.285236
0.442165
0.479947
0.287316
0.540391
0.236079
0.235673
0.233251
0.232706
0.234182
-0.299574
-0.192774
-0.185484
-0.128183
-0.013905
0.111232
0.000224392
-0.128143
0.0123273
0.0129923
0.340212
0.358846
0.302223
0.328532
0.327746
0.154663
0.22956
0.285341
0.241728
0.282785
0.302409
0.266823
0.29327
0.245193
0.200948
0.202294
0.147282
0.161233
0.140225
0.124105
0.22588
0.20374
0.213849
0.20499
0.225798
0.253027
0.245893
0.274144
0.286457
0.211129
0.173486
0.179671
0.209402
0.172437
0.185991
0.199009
-0.07204
-0.140697
-0.105194
-0.392606
-0.3036
-0.38048
-0.41113
-0.297661
0.000723045
-0.742134
-0.801798
-1.36104
0.189001
0.713617
0.397561
0.340798
0.43577
0.410531
0.411774
0.446391
0.449324
0.370602
0.388317
0.394221
0.339714
0.364151
0.394002
0.390107
0.228402
0.0958424
0.0856035
0.052094
-0.0669433
-0.033071
0.169364
0.0851832
0.0130844
0.0298434
0.192136
0.0887171
0.151583
0.179712
0.101195
0.074606
0.265043
0.337503
0.327743
0.30158
0.218342
0.228745
0.259413
0.294528
0.319675
0.359153
0.222884
0.228542
0.229748
0.22736
0.22465
0.227294
0.227274
0.230037
0.230859
0.233982
0.232916
-0.317281
-0.29757
-0.322761
-0.338118
-0.29381
-0.2996
-0.242281
-0.257102
-0.270591
-0.260074
-0.298393
-0.295172
-0.30051
-0.288267
-0.164538
-0.159883
-0.170584
-0.211734
-0.0494907
0.0969594
0.154284
0.0359506
-0.0541624
-0.0225431
-0.0093015
-0.268537
-0.24894
-0.25294
-0.218144
-0.219447
-0.43291
-0.449814
-0.4432
-0.425734
-0.402792
-0.434138
-0.361006
-0.42013
-0.410561
-0.400881
-0.373723
0.210319
0.204005
0.205078
0.200145
0.199007
0.211351
0.215397
0.217407
0.222298
0.223694
0.215384
0.219567
0.223011
-0.423047
-0.318356
-0.376957
-0.46377
-0.356033
-0.290328
-0.328442
-0.174634
-0.248482
-0.249223
-0.287275
-0.41272
-0.355451
0.190911
0.187915
0.218868
0.407349
0.257094
0.182548
0.279191
0.370549
-0.0323063
0.160941
-0.00567273
0.575553
0.463042
0.606112
0.223572
-0.0663714
0.0909394
0.151714
-0.0631463
0.012566
0.0294819
-0.0693096
-0.0427794
-0.0225699
0.0819805
-0.0237475
-0.0473852
-0.301908
-0.111265
0.0236734
0.0066613
0.137367
0.207533
-0.0584656
-0.123291
-0.153662
0.330557
0.351748
0.374975
0.340281
0.366899
0.28795
0.277869
0.297425
0.307665
0.301408
-1.0844
-0.794654
-1.70932
-0.99748
-0.559347
0.223901
0.182618
0.465305
0.353797
0.420263
0.404119
0.37354
0.336524
0.345011
0.379428
0.0873699
0.190242
0.166545
0.171169
0.0680644
0.0130107
0.307466
0.299069
0.340687
0.362912
0.327844
0.363992
0.220808
0.220344
0.220091
0.217017
0.215125
0.216949
-0.21108
-0.23225
-0.197558
-0.217644
-0.23505
-0.248624
-0.515243
-0.480071
-0.534474
-0.503797
-0.514259
-0.497983
-0.150867
-0.206897
-0.269818
-0.244698
-0.300688
-0.369411
-0.38574
-0.287404
-0.200906
-0.196273
0.105941
0.342591
0.168114
0.334087
0.201809
0.233543
0.214574
0.209253
0.244406
0.101363
0.171657
-0.0209001
-0.554234
-0.435741
0.44419
0.512148
0.29556
0.161723
-0.129745
0.00449883
0.259234
0.189396
0.232892
0.303046
0.296635
-0.290098
-0.257063
0.0603117
0.261023
-0.0595915
-0.122893
-0.110068
0.0494959
0.00202043
)
;

boundaryField
{
    wall-4
    {
        type            zeroGradient;
    }
    velocity-inlet-5
    {
        type            zeroGradient;
    }
    velocity-inlet-6
    {
        type            zeroGradient;
    }
    pressure-outlet-7
    {
        type            fixedValue;
        value           uniform 0;
    }
    wall-8
    {
        type            zeroGradient;
    }
    frontAndBackPlanes
    {
        type            empty;
    }
}


// ************************************************************************* //
