/*--------------------------------*- C++ -*----------------------------------*\
| =========                 |                                                 |
| \\      /  F ield         | OpenFOAM: The Open Source CFD Toolbox           |
|  \\    /   O peration     | Version:  4.0                                   |
|   \\  /    A nd           | Web:      www.OpenFOAM.org                      |
|    \\/     M anipulation  |                                                 |
\*---------------------------------------------------------------------------*/
FoamFile
{
    version     2.0;
    format      ascii;
    class       surfaceScalarField;
    location    "27";
    object      phi;
}
// * * * * * * * * * * * * * * * * * * * * * * * * * * * * * * * * * * * * * //

dimensions      [0 3 -1 0 0 0 0];

internalField   nonuniform List<scalar> 
1300
(
3.75095
5.62643
-5.57064
3.75095
-5.51221
5.62643
-4.50547
4.50547
-1.11551
1.11551
1.8765
1.87445
-3.05272
3.05272
-2.22209
2.22209
-2.54933
2.54933
-5.24644
5.24644
-5.06825
5.06825
4.6666
-4.6666
-3.99114
3.99114
-1.53787
1.53787
-3.99894
3.99894
3.16891
-3.16891
-3.35507
3.35507
-0.332231
0.332231
-0.553177
4.30413
3.19778
3.19778
-2.17522
2.17522
-4.86197
4.86197
6.21781
-6.21781
8.23738
-8.23738
-2.66675
-3.41575
1.55416
-9.1154
-3.95805
-3.95805
-8.44024
8.44024
-2.81381
2.81262
2.94255
-2.94255
-1.8658
1.8658
-4.41648
-0.0889862
-4.41648
4.52853
-0.0230613
4.52853
-1.24666
0.131149
-1.24666
4.01094
-4.01094
0.950241
0.165273
0.950241
3.06487
-3.06487
-1.8772
3.7537
1.87375
-1.87174
6.17587
-1.87922
3.75367
-5.86445
5.86445
-3.32026
0.267541
-3.32026
2.8471
0.205628
2.8471
-6.61197
6.61197
-2.44185
0.219762
-2.44185
2.21865
0.00343669
2.21865
2.84951
-2.84951
-2.64958
0.100248
-2.64958
2.45715
0.0921838
2.45715
0.353705
5.27273
-5.98013
8.79275
-5.27273
0.0262871
5.20835
0.0380894
5.20835
-5.10581
0.0375583
-5.10581
5.01122
0.0570326
5.01122
4.74616
-0.0795616
4.74616
-4.78751
0.120906
-4.78751
-2.99393
-4.20262
-4.21977
0.228627
-4.21977
-1.53833
0.000455034
-1.53833
1.4906
0.0472753
1.4906
-3.50339
3.50339
-4.34752
0.348581
-4.34752
3.12297
0.0459415
3.12297
1.86905
1.8819
5.62001
-5.62001
2.4511
-2.88049
-0.47458
-2.88049
-3.8187
-4.41868
3.8187
-0.463636
-0.598988
0.266757
-0.598988
3.15996
0.0378188
3.15996
2.35091
0.106237
-2.35091
0.175696
3.23086
-3.23086
1.56355
0.611663
1.56355
-5.56873
5.56873
4.95196
0.0592595
-4.95196
0.0899949
6.15645
0.0613586
6.15645
-6.19979
-0.0180183
-6.19979
2.67403
-6.08978
-3.82516
3.92638
0.0647606
-3.92638
-0.0316717
2.91178
0.0307669
2.91178
-2.92012
2.92012
-2.98298
0.0404245
-2.98298
-2.25394
0.388141
-2.25394
1.57672
0.289076
1.57672
-4.29275
-0.12373
-4.29275
-4.4703
0.122779
4.4703
0.0582368
1.08028
-1.08028
-1.379
0.132333
-1.379
-4.14646
-0.146295
4.14646
-0.135516
-3.86943
-0.141516
-3.86943
-3.02373
0.0407564
3.02373
0.0411359
3.11292
0.047041
-3.11292
0.0480481
-1.87089
3.75279
-1.88006
3.75381
-5.47424
-0.390206
-5.47424
6.1786
-0.314151
6.1786
3.66255
0.336384
-3.66255
0.342287
2.68119
0.165906
2.68119
-6.62681
0.0148414
-6.62681
6.42434
0.187629
6.42434
2.55538
0.125812
-2.55538
0.113529
2.32403
-0.105383
2.32403
2.85269
-0.00317879
2.85269
-2.85885
0.00933246
-2.85885
2.80016
-2.80016
2.73078
0.069378
-2.73078
0.0811987
-11.1327
11.1147
-0.0350991
-11.0976
5.17325
5.17325
4.16398
0.582183
4.16398
-5.00135
0.213844
-5.00135
2.67492
-6.50008
4.1142
-7.10812
3.99513
-13.1105
3.30678
-7.5094
5.48257
-5.48257
4.77398
0.708594
-4.77398
0.55421
-1.55831
0.0199778
-1.55831
-2.90092
-0.60247
-2.90092
4.15962
-0.65623
4.15962
-3.02859
3.02859
-3.07733
0.0487486
3.07733
0.0456343
2.56966
-0.245628
-2.56966
-0.310828
0.774719
0.175522
-0.774719
0.175731
3.44507
-0.214201
3.44507
-3.02747
-0.203389
-3.02747
-1.56749
0.00917846
1.56749
-0.00393146
-5.81787
0.249137
-5.81787
-11.1908
0.0932389
-11.1527
-6.10655
-6.10655
2.33369
11.1264
-2.88352
0.0246716
2.88352
0.028268
2.97529
0.0532987
-2.97529
0.0551673
-2.86188
0.0617185
2.86188
0.058243
-2.64116
0.387221
-2.64116
-1.16526
1.16526
-1.35225
0.186995
1.35225
0.224471
1.30507
-0.224791
1.30507
1.44056
0.0500402
-1.44056
0.0615625
-3.74932
-0.120104
-3.74932
6.38839
-0.209795
6.38839
-2.90715
-0.120324
2.90715
-0.0544595
-0.0333421
11.148
-5.13991
0.0340961
5.13991
-11.2094
11.2435
-3.26997
0.62881
3.26997
0.894007
5.29056
0.278164
-5.29056
0.289213
6.09194
0.332401
-6.09194
0.609365
-2.41911
-0.481811
-2.41911
-4.9038
-0.570444
4.9038
-0.744177
-11.4743
-0.202323
11.6766
-11.4173
6.02019
0.136263
-6.02019
11.3797
-1.06065
-0.0196263
1.06065
0.104607
1.59059
-0.285524
1.59059
3.63676
-0.191692
-3.63676
-0.112566
-6.5223
-0.104516
6.5223
-0.133901
-1.98214
-0.43697
1.98214
-0.391549
-4.26688
4.3047
1.90899
-2.15146
-3.93831
-6.57014
1.85141
1.90138
4.30251
-8.31249
-4.79804
-8.34416
7.26468
-6.97547
-9.28678
9.20722
7.55186
-7.69337
-5.78708
5.83272
6.48154
-6.4404
1.87905
1.87465
7.90269
-7.63515
-15.6302
15.24
6.54473
-6.32497
15.7623
-15.7475
-18.042
18.3744
-5.74519
5.84544
-6.70149
6.71082
-6.879
6.82454
-1.97791
-5.13022
12.2981
-12.0695
7.85558
-8.33016
-8.48477
8.83335
3.38185
0.922845
3.42889
-1.88238
3.76143
-1.87129
3.78028
4.22453
-6.20243
2.27555
-6.21387
4.64231
3.21327
-4.17867
-2.39147
-5.91673
5.94749
-5.82537
5.88361
8.90787
-8.99685
-1.88511
3.75976
-1.86871
3.77008
-3.42656
-2.36052
3.38062
0.921889
7.06425
5.23388
-7.12901
-1.21515
-7.81288
7.62119
-8.06709
7.8637
-0.440156
5.81788
-5.37772
4.42181
-1.54834
7.36622
5.71634
5.93018
5.86571
-5.58755
1.10975
-6.48747
-6.39748
-2.55124
2.68357
2.50583
-2.34056
5.92313
1.62873
5.78761
-5.563
-2.13037
-5.6831
3.82195
2.01077
3.87069
4.07529
2.40625
4.11604
3.03104
-3.03489
0.00384193
-3.05632
6.08737
0.724871
-5.41684
-4.49496
4.91136
2.99134
5.11698
-5.47252
-2.16263
-5.13024
-9.4967
-6.13347
-10.0671
10.0846
5.15537
9.77045
-11.9583
11.8244
3.63078
2.91396
3.63421
-4.52849
-1.79648
-4.41496
12.3381
-3.20278
-9.13528
-10.4131
-7.62896
10.2254
5.53691
10.8367
7.53775
11.446
4.69721
7.64085
-10.2341
2.60515
-3.88219
-1.863
-3.80099
3.72346
2.12198
3.81565
-4.20721
-2.49428
-4.18254
-4.2665
-2.6125
4.26968
2.44114
-4.33561
-3.73148
4.45593
2.36862
4.19561
-8.99365
3.31379
-8.44401
-9.11968
-2.94982
-8.56547
5.48409
1.10593
-6.59002
-0.718342
9.32368
-6.1104
6.93221
-4.12724
-4.20292
-4.43807
-6.76038
-1.72439
-6.6376
-8.82773
8.34592
-9.15927
8.50304
12.7337
-5.71991
-7.01376
-3.96806
-2.47235
3.92001
-0.491117
-3.71189
3.71573
0.0495428
3.82983
4.75267
4.26155
-3.88893
-1.93644
-3.83376
3.83601
2.0476
3.89773
6.73169
2.17618
6.70863
-6.44121
-2.55565
-6.56494
9.06943
-8.68128
2.9515
-2.94232
5.26715
2.59655
-5.05294
-2.75994
6.12485
-3.07896
-3.04589
-12.2105
10.5811
1.62948
-4.84433
-0.42252
-0.0902895
-5.49948
-3.7873
5.37857
0.551615
11.1327
7.34537
-5.5119
5.76103
6.16474
6.224
-0.173484
5.79389
-5.16507
5.3527
-2.44736
-2.90534
5.29781
-5.44411
-1.26713
-5.24814
3.98101
0.343505
1.72872
-1.46196
-2.02174
-0.529498
-1.96018
1.48423
1.0216
1.65975
0.993095
1.69047
-2.93353
0.518934
2.41459
-1.94043
-1.82162
-3.69141
-1.04152
4.73293
5.59648
2.02472
-5.48391
-0.199194
2.73601
-2.68874
-0.814579
-2.87683
2.09059
-2.90517
-3.56492
-1.89376
5.45868
-3.3715
-0.462267
3.3182
0.552498
-3.82449
-2.09224
3.78406
0.331982
-3.12338
6.18847
-3.06509
-5.05982
2.52974
3.55762
4.54051
-4.78949
2.44614
2.34336
-1.23187
4.17942
0.937563
4.34533
-6.68544
4.52281
5.72479
3.10856
-6.06117
0.930939
-5.7545
8.4741
-7.25406
-1.22004
4.11262
4.36148
7.20778
5.5259
-5.7771
12.9849
-1.15666
-6.0974
6.91116
-3.8026
4.70502
-8.50763
-10.2309
4.13352
-9.24035
10.9572
-1.71685
-3.61315
-8.34514
12.8535
-1.21551
-11.638
8.55494
-4.06223
-4.97193
9.03416
-7.265
6.76841
-1.58392
-5.18449
-10.0955
-5.65203
10.2
1.6244
-11.4053
14.0104
-3.76441
3.01821
0.616002
2.91283
3.29621
-5.50193
2.20572
3.96879
-5.55271
1.99068
-7.49261
-7.53309
12.313
-4.77991
-10.4829
-10.5095
0.0265551
2.36377
11.6466
-9.90152
6.9203
2.98122
3.31427
0.583458
-3.38365
-0.417341
0.294438
4.55797
-4.85241
4.11008
4.21632
3.43586
1.12212
3.83681
2.11068
-3.86508
-0.317461
-4.13915
1.52664
-1.69801
-3.64878
5.17543
-4.08596
0.437174
-2.7342
-3.53436
6.26855
-4.5972
3.04037
3.1481
5.08797
-4.91419
1.37983
-2.4147
-2.49949
2.70612
-4.40413
1.95121
3.22422
4.31982
0.588343
7.00197
5.31103
-8.1079
-0.33611
10.5449
-9.32976
3.20484
8.2412
-10.1251
-0.384329
-8.9498
-0.307579
-5.80282
-6.8976
5.01408
-6.73847
-3.49355
6.12531
0.583321
-6.18354
-0.454054
-6.00178
-2.82596
-6.43875
-3.05595
-6.10333
-8.83304
-1.64013
-7.19292
6.7058
-6.63988
-3.42727
7.38405
1.11899
-7.36858
7.34896
-7.44562
7.1601
0.0944715
3.62126
4.35602
1.88368
-2.38939
4.27307
-5.02871
7.20489
-8.41728
3.38857
3.9378
-6.49345
-4.47948
5.04481
4.02461
5.33389
8.94569
-10.4975
1.55179
-10.8498
12.1458
-1.29598
-16.6026
5.75276
-7.65691
2.68698
0.264515
2.70696
0.672378
2.41433
-3.08671
-2.26994
-2.27387
-2.31007
-3.3645
5.67456
1.12766
-3.38192
2.25426
-3.46799
4.59565
-0.0649563
-3.31696
5.24835
-2.83402
5.51286
-3.53295
1.97991
3.29083
5.62703
-2.3362
4.30233
-1.70578
1.8221
-4.1583
-1.54239
-2.99586
5.11784
-3.27269
3.70987
-0.26543
3.9753
-4.07068
0.991726
-0.634827
3.58149
3.75719
4.26067
-3.13855
2.94352
-4.64931
-1.21477
-4.06096
-0.836743
-0.296768
-3.80234
4.09911
6.07855
-6.37532
-5.24227
9.56984
-4.32757
7.74245
-5.39894
-2.34351
-4.26195
-4.41934
3.87473
1.91916
9.66161
0.23805
-5.63699
-4.92703
-4.03302
3.20869
2.14401
-1.95964
3.58912
2.04993
-0.32121
0.58153
1.07822
1.86896
-1.28743
0.208006
1.66096
-1.25396
2.00229
0.733721
-2.05233
0.0921576
-1.39352
3.48412
1.02107
-2.04267
0.755236
1.02981
-3.47717
4.83834
-2.47473
-2.36361
5.86815
1.13836
-3.6131
4.10977
-3.76627
2.31243
-3.35395
-1.30067
-5.06694
-3.43821
-2.49931
4.75357
-3.17526
5.19997
1.18865
-5.00078
6.18943
-3.53777
1.64401
-3.05647
3.79019
-1.05788
-1.99859
2.76039
2.69829
-2.91165
0.0348209
-0.151257
2.30515
-2.4564
-0.600027
-2.54046
-4.5731
4.90508
-2.10622
4.55236
2.16685
-1.91428
6.46664
1.81128
-3.72556
-3.24854
-3.71081
-1.3822
3.15831
-0.272505
-4.14245
-5.457
4.01664
0.328684
-6.91888
7.75278
-0.833901
-3.92755
-0.595261
4.70788
-5.92683
0.374118
-3.93615
3.81663
4.75419
5.08288
-11.4411
-0.196869
-6.28574
1.17086
-7.45661
5.53234
-3.66566
7.79919
-10.4382
7.01093
-9.31921
6.57915
-0.877455
6.31518
-4.10946
2.82011
-8.47214
-6.84774
5.30699
-2.39303
5.92299
-2.87671
8.79971
-6.64113
4.80951
3.99019
-1.40627
-3.0318
-4.44492
3.03865
0.364597
3.27742
4.97414
-2.86346
4.65668
2.24173
-4.65643
-2.1624
-6.49903
1.8426
-3.35093
-1.91255
3.75515
3.17542
3.75888
1.25566
-3.34154
9.23306
-9.20651
-4.45315
-2.44445
4.83725
-1.7986
5.1685
-7.61295
-0.634322
4.92145
-0.874283
-4.04717
0.798463
-4.29201
1.6453
-5.93731
5.09317
-5.54722
2.16655
-9.82346
-5.20204
-5.09743
-2.22653
-5.21909
-7.65784
5.43131
-1.90508
5.44388
-8.66009
7.78581
-3.48572
8.91703
-5.41302
-1.02573
5.80457
1.35553
10.2726
0.164775
-4.64425
-1.92015
4.01963
-2.09948
1.28854
-3.63757
0.382063
2.43618
3.43197
-6.41719
-0.0762548
-4.72051
-3.9288
7.95342
5.64104
11.7196
1.22211
9.14717
-1.19376
10.3693
4.14013
4.3646
-3.03895
4.59074
1.06016
4.44873
-0.843668
2.82358
1.86329
1.86375
0.824991
2.29419
1.463
3.28592
0.199211
-2.07466
4.63756
-8.67058
-0.999422
-8.0884
1.11882
5.82983
-4.71101
3.15965
-1.01565
1.06018
0.110339
-1.67625
1.56591
-2.795
-1.99746
-0.336504
-1.60027
2.35551
1.88385
-2.019
-0.776
0.329582
-3.76779
3.02437
-2.98955
-0.291261
5.89817
-2.72504
0.268635
-1.08103
-2.27182
-2.80132
2.70916
6.17607
0.290564
3.11098
5.19564
3.10341
0.239948
3.96643
-5.68328
-3.52617
-5.88015
-0.347808
4.36007
2.21358
9.43307
6.20377
4.40517
-3.20778
-12.4143
6.54528
-1.95454
5.2493
-1.20213
-4.73518
4.9486
2.25629
-5.53192
-0.0152964
-4.75048
-6.70502
-0.573746
8.35955
-9.69881
8.67308
5.84713
1.34579
-4.39728
-0.700147
4.21029
0.154319
10.5236
-1.176
-6.77375
7.94975
-4.65383
3.65441
0.819296
2.76983
2.38521
1.36956
-5.40419
-10.1152
-1.92
-1.55716
-4.28361
0.449319
-2.33316
6.28819
-2.63378
3.94468
5.31597
6.37615
-2.15803
-4.21728
6.48561
-2.54093
3.83522
)
;

boundaryField
{
    wall-4
    {
        type            calculated;
        value           uniform 0;
    }
    velocity-inlet-5
    {
        type            calculated;
        value           uniform -3.75095;
    }
    velocity-inlet-6
    {
        type            calculated;
        value           uniform -5.62643;
    }
    pressure-outlet-7
    {
        type            calculated;
        value           nonuniform List<scalar> 8(5.57064 5.51221 6.0825 7.56124 7.19655 6.49919 6.78911 7.30191);
    }
    wall-8
    {
        type            calculated;
        value           uniform 0;
    }
    frontAndBackPlanes
    {
        type            empty;
        value           nonuniform 0();
    }
}


// ************************************************************************* //
