/*--------------------------------*- C++ -*----------------------------------*\
| =========                 |                                                 |
| \\      /  F ield         | OpenFOAM: The Open Source CFD Toolbox           |
|  \\    /   O peration     | Version:  4.0                                   |
|   \\  /    A nd           | Web:      www.OpenFOAM.org                      |
|    \\/     M anipulation  |                                                 |
\*---------------------------------------------------------------------------*/
FoamFile
{
    version     2.0;
    format      ascii;
    class       volVectorField;
    location    "27";
    object      U;
}
// * * * * * * * * * * * * * * * * * * * * * * * * * * * * * * * * * * * * * //

dimensions      [0 1 -1 0 0 0 0];

internalField   nonuniform List<vector> 
918
(
(0.985094 -0.000552099 0)
(0.00477619 2.96626 0)
(-0.0282373 1.4737 0)
(0.979826 0.00240921 0)
(0.00432838 1.45127 2.90769e-20)
(-0.00704476 2.9489 -8.2162e-19)
(0.840918 1.19418 2.88484e-19)
(0.368884 0.174602 -3.90291e-21)
(0.999904 -0.000306596 0)
(0.0475408 0.88783 0)
(0.00361394 0.630963 0)
(0.727622 -0.00674204 0)
(0.0114886 2.93015 0)
(0.00252586 2.79485 0)
(-0.0188391 3.15714 4.61772e-19)
(0.00308409 1.18471 1.03631e-19)
(0.470262 0.0714027 2.45326e-19)
(0.171277 1.24162 2.45628e-19)
(0.962006 0.00385552 0)
(-0.0472303 0.963178 0)
(0.102552 0.206865 -1.953e-19)
(1.00219 -0.00520765 0)
(1.00075 -0.010161 0)
(0.975958 -0.00652491 0)
(0.612814 -0.038599 0)
(0.0180474 2.63554 0)
(-0.0149198 2.91022 2.71222e-19)
(-0.0762331 1.43369 0)
(-0.0774834 1.6111 0)
(-0.0427816 1.45392 0)
(0.00785032 2.031 0)
(0.0551118 1.49362 -2.25419e-20)
(0.0338684 1.23657 0)
(-0.0204648 2.9875 -2.87696e-23)
(-0.0169884 3.00541 6.52685e-19)
(0.00201802 3.00017 0)
(0.869889 -0.00893994 0)
(0.435974 0.975387 -3.46084e-22)
(0.809833 1.21483 -3.90386e-19)
(0.958403 1.04637 3.72295e-19)
(0.678288 1.31562 -6.66346e-20)
(0.684227 1.30309 3.76628e-19)
(0.410187 0.266568 3.80557e-21)
(0.396633 0.159497 0)
(1.15532 0.582733 0)
(0.376862 0.267751 1.76089e-20)
(0.31974 0.176009 -1.82844e-20)
(0.919516 -0.00735645 0)
(1.00031 0.000152965 0)
(0.999919 0.000345148 0)
(1.00351 -0.00769327 0)
(1.00095 -0.000961194 0)
(1.00019 1.34916e-05 0)
(0.062987 1.76287 -1.10475e-19)
(0.0473954 1.02355 0)
(0.0771865 0.975508 0)
(0.0182377 0.966482 0)
(0.0438031 0.816048 0)
(-0.0081862 1.96805 0)
(0.0402422 0.775229 0)
(0.00844495 0.686336 0)
(-0.0156053 0.727332 0)
(-0.0204528 0.635467 0)
(0.831175 -0.0142299 0)
(0.851055 0.0256284 0)
(0.762243 0.00294421 0)
(0.826719 0.0280689 0)
(0.701919 -0.0135196 0)
(0.015343 3.00065 2.94801e-19)
(0.0117096 3.00828 0)
(0.0065079 3.0026 0)
(0.0141398 2.99718 3.25463e-24)
(0.00838823 2.95852 -4.45482e-19)
(0.0151953 2.98192 0)
(0.0111775 2.90369 0)
(0.0256272 2.93038 5.73171e-25)
(0.00480957 2.82485 0)
(0.0315113 2.91579 0)
(-0.00578078 2.74472 0)
(0.306289 3.5529 0)
(-0.145706 3.6303 0)
(0.13747 3.24938 -4.26239e-19)
(-0.0102826 2.98655 0)
(-0.151439 1.92301 0)
(0.0356991 1.40494 -1.02186e-19)
(-0.0664411 1.24546 1.01919e-19)
(0.545974 0.155871 -8.46413e-20)
(0.466825 0.0485848 -8.17877e-20)
(0.529593 0.180824 -2.5511e-19)
(0.450649 0.095881 -1.71114e-19)
(0.180472 0.89026 0)
(0.250826 1.37166 -2.53676e-19)
(0.37037 1.33475 4.20262e-19)
(0.987412 0.00817035 0)
(0.941456 0.00543573 0)
(1.00031 0.000425853 0)
(1.00326 0.00949168 0)
(1.00288 0.00780534 -5.10226e-19)
(0.991781 0.00991403 3.89448e-19)
(-0.0699569 1.02507 0)
(-0.0468951 0.829232 0)
(-0.097556 1.38994 0)
(-0.0541377 1.17123 0)
(-0.0265148 1.11514 0)
(0.159499 0.217897 6.044e-20)
(0.207827 0.197858 0)
(0.99334 -0.00827811 0)
(0.954427 -0.00610967 0)
(0.788073 0.031566 0)
(0.750653 0.0410197 0)
(0.672519 -0.0305289 0)
(0.959231 3.25031e-05 0)
(0.685002 0.0629861 0)
(0.522571 -0.0118077 3.29858e-19)
(-0.0361443 2.865 1.42022e-19)
(0.043203 2.90823 0)
(0.0556671 2.88393 0)
(-0.00488095 2.69747 0)
(-0.0138077 2.98511 2.48682e-19)
(-0.0182066 2.8952 0)
(-0.0158713 2.98804 -7.89293e-19)
(-0.0132751 2.92535 2.73598e-19)
(-0.157051 1.6497 0)
(-0.14615 1.7306 0)
(0.0691479 1.39237 3.01177e-21)
(0.0728393 1.39291 0)
(0.00501207 1.19145 0)
(0.937389 -0.00801476 0)
(0.855824 -0.00848352 0)
(0.86309 0.00651017 0)
(0.94874 -0.00786766 0)
(0.883281 -0.0075128 0)
(0.545545 1.17104 -3.75473e-21)
(0.596682 1.21057 0)
(0.401903 0.92629 3.72892e-21)
(0.34213 0.783848 0)
(0.922317 1.08427 -1.06554e-19)
(1.03352 0.888116 2.19873e-19)
(0.371953 1.41243 0)
(0.535069 1.38253 0)
(0.533331 1.34726 0)
(0.117683 0.186905 -6.18999e-20)
(0.455786 0.252908 0)
(0.435391 0.141597 4.88443e-20)
(1.00944 0.941253 0)
(1.08331 0.793676 0)
(1.10533 0.736155 -1.93339e-19)
(1.13363 0.635922 0)
(1.18035 0.418975 2.46803e-20)
(0.957428 -0.00833396 0)
(0.962238 -0.0101954 0)
(0.901927 -0.00757447 0)
(0.984281 -0.00922586 0)
(0.974724 -0.00932953 0)
(0.937386 -0.00594752 0)
(1.00017 0.00213408 0)
(1.00087 0.00144914 0)
(0.99986 0.000908708 0)
(0.0324554 2.03566 6.88944e-20)
(0.0975891 1.70657 0)
(0.0128881 2.14228 6.59636e-20)
(0.052179 1.84183 -2.97795e-20)
(0.124184 1.23632 -2.03265e-19)
(0.0442916 1.10867 0)
(0.0848681 1.10692 0)
(0.0248302 0.904439 0)
(0.000327869 0.760295 0)
(-0.0204126 2.16635 1.04269e-21)
(0.014931 1.96741 0)
(-0.0609554 2.11761 6.9098e-20)
(-0.0272224 1.91868 -1.38361e-19)
(0.00881265 0.875349 0)
(0.0205929 0.838473 0)
(0.000812659 0.715929 0)
(-0.0306091 0.744947 0)
(-0.0305209 0.666515 0)
(0.927538 0.00749445 0)
(0.834342 -0.0140211 0)
(0.922101 -0.00188539 0)
(0.836403 -0.0116256 0)
(0.811326 0.00419671 0)
(0.903486 0.0180765 0)
(0.881429 0.0215272 0)
(0.787131 0.00345378 0)
(0.00437657 3.06451 -2.45112e-21)
(0.0167226 3.05768 0)
(0.015362 2.96905 0)
(0.00894401 2.87632 0)
(0.965873 3.99182 0)
(1.31131 3.25442 4.85671e-19)
(0.0698586 3.07781 0)
(-0.0251946 2.90816 0)
(-0.216708 1.72925 0)
(-0.218216 1.89212 0)
(-0.176441 1.80931 0)
(-0.0328014 2.04109 -4.4446e-21)
(-0.165405 1.98991 0)
(-0.0935505 1.95578 0)
(-0.115815 1.65662 5.02787e-21)
(-0.114842 1.68125 -7.27013e-20)
(-0.056764 1.50084 -1.0419e-19)
(-0.12407 1.42023 0)
(0.574913 0.127461 1.24574e-19)
(0.479974 0.0227946 -1.21803e-19)
(0.269908 1.53571 0)
(0.236132 0.674677 -8.67948e-20)
(0.177727 1.63161 -2.84403e-19)
(0.19829 1.15263 2.85139e-19)
(0.902016 0.00605295 0)
(0.967503 0.0107052 0)
(0.974525 0.0106011 0)
(0.923445 0.00601343 0)
(-0.0397682 0.796055 0)
(-0.0477894 0.890549 0)
(-0.0538492 0.742453 0)
(0.322566 0.260895 1.61128e-19)
(0.26584 0.234753 -1.93283e-19)
(0.270348 0.18771 0)
(1.08831 0.0875997 -2.18767e-22)
(1.06889 0.0398976 0)
(0.997716 0.0422808 0)
(0.893533 0.00215501 0)
(0.602345 0.0966083 0)
(0.627913 0.0701244 -5.31605e-19)
(0.498935 0.00396193 2.02818e-19)
(0.00929734 2.98231 1.76595e-19)
(-0.0318361 2.86796 2.00415e-20)
(0.00188498 3.04961 -5.29407e-21)
(0.0207661 3.04324 1.9716e-19)
(-0.0153569 2.9963 9.09393e-21)
(-0.0127643 2.94946 -3.689e-23)
(-0.0175533 3.01153 -1.71343e-19)
(0.0141896 3.02316 1.23302e-19)
(0.00667679 3.03668 -1.96928e-19)
(0.930421 -0.00201986 0)
(0.937534 -0.0036029 0)
(0.842294 -0.00820104 0)
(0.95663 0.0114422 0)
(0.943157 0.0125457 0)
(0.881607 0.00568958 0)
(0.918981 0.0152068 0)
(0.927048 0.0143756 0)
(0.838765 0.00504962 0)
(0.76267 1.43869 1.36286e-19)
(0.80607 1.5309 0)
(0.246595 0.40176 1.46581e-20)
(0.213835 0.683797 1.17001e-19)
(0.288023 0.759124 -6.9042e-20)
(0.312974 0.59582 1.28012e-19)
(0.3108 0.76186 3.43495e-19)
(0.113369 0.217802 9.58099e-20)
(0.503056 0.204024 1.82901e-19)
(0.480647 0.224371 4.6308e-20)
(0.445211 0.120378 9.25685e-20)
(1.1701 0.474085 1.09267e-19)
(1.17794 0.27138 1.13485e-19)
(0.00122425 2.16876 7.30849e-21)
(0.0431635 1.89782 0)
(0.953835 0.0323778 0)
(0.926028 0.0148666 0)
(0.852851 -0.0106612 0)
(0.0110635 3.07426 0)
(0.0206049 2.94407 3.36322e-19)
(0.0171885 2.95626 0)
(0.00664086 2.85065 -3.3518e-19)
(0.00576647 3.0918 7.7575e-20)
(0.00587594 3.08208 0)
(0.891658 1.83512 -1.00138e-19)
(1.27655 2.38695 2.20917e-19)
(0.871885 1.93922 -5.77308e-19)
(0.0203078 2.98274 -1.32086e-19)
(0.0364568 3.00388 0)
(-0.0327963 2.88031 0)
(-0.0901721 2.0327 7.05032e-22)
(-0.132802 1.87337 1.33701e-19)
(-0.089879 1.83327 3.99389e-21)
(0.277543 1.35435 2.83047e-19)
(0.188362 0.466995 -1.93568e-19)
(0.0537474 1.95989 1.94806e-19)
(0.154881 1.8505 -2.48302e-19)
(0.147649 1.43293 3.86626e-20)
(0.00419092 3.11768 -4.41517e-19)
(0.0150941 3.11803 4.96892e-19)
(-0.00963094 2.9805 2.16518e-19)
(-0.00375733 2.97775 -1.9269e-19)
(-0.021768 2.88213 -2.20636e-19)
(0.00768905 3.09813 -5.68582e-19)
(0.000817117 3.1064 5.71613e-19)
(0.247468 0.683384 0)
(0.21932 0.678914 -2.36433e-19)
(0.1395 0.259371 1.06508e-19)
(0.32435 0.869056 2.81668e-19)
(0.168621 0.251721 -4.31432e-19)
(1.17287 0.178176 -1.70384e-20)
(1.17911 0.319854 0)
(1.15867 0.128011 4.32168e-20)
(0.00798831 2.18195 8.32082e-22)
(0.000407407 2.19233 0)
(0.0136868 1.93442 0)
(0.345687 1.24216 -1.02855e-19)
(0.360196 1.06806 -2.20721e-19)
(0.175014 0.336161 3.81555e-19)
(1.00553 -0.0112093 0)
(1.00751 -0.00745158 9.38491e-20)
(-0.185966 1.58805 0)
(-0.188206 1.5407 0)
(1.00196 0.00347282 8.04855e-22)
(1.00389 0.0100559 1.91305e-19)
(-0.0340464 2.07163 5.8655e-21)
(-0.00887953 2.10741 0)
(0.0362124 3.1797 5.79835e-20)
(0.389712 3.48682 0)
(1.14213 0.639599 2.0942e-20)
(1.01324 0.0135225 -7.6968e-22)
(1.02095 -0.0108767 0)
(1.00175 0.000146817 3.47454e-23)
(0.105596 1.35015 0)
(0.158417 2.56996 0)
(0.0968979 1.13203 0)
(-0.00583872 2.61668 -7.69029e-20)
(-0.0707362 2.62242 -8.81697e-20)
(1.00817 0.0299026 1.01901e-21)
(1.05897 -0.00269664 0)
(1.08285 0.0161364 0)
(-0.245927 1.90171 0)
(-0.163864 2.39731 0)
(-0.246036 1.2305 0)
(0.289539 1.45742 -1.6643e-19)
(1.01122 -0.00997248 0)
(1.00934 -0.0153757 0)
(1.00249 0.000652023 1.18943e-19)
(1.00539 -0.00477955 -1.41483e-19)
(1.00121 -0.0011011 0)
(-0.31382 1.79057 0)
(-0.249162 1.60753 0)
(-0.256109 1.72816 0)
(-0.242636 1.24661 0)
(-0.238863 1.40897 0)
(-0.195186 1.29592 0)
(1.03402 -0.00728534 0)
(1.02126 0.0162874 -3.90123e-22)
(0.794618 1.24477 1.94472e-19)
(1.0022 0.000427294 -1.18571e-19)
(1.00406 0.00536216 1.42179e-19)
(1.00116 0.00209391 0)
(1.01345 0.0105189 1.16052e-19)
(1.00851 0.00863275 -1.43363e-19)
(1.00935 0.0156441 0)
(-0.138585 2.3836 0)
(-0.0547702 2.22729 -7.87462e-20)
(-0.0499097 2.24835 6.59533e-20)
(1.20106 0.251448 -4.26318e-22)
(1.13611 0.0836286 0)
(0.0479744 3.07575 -2.28238e-19)
(0.0665121 2.85094 -1.77122e-20)
(0.146192 3.1955 3.69673e-19)
(0.142323 3.22516 -5.66897e-21)
(0.134923 3.23763 0)
(0.0195373 3.13726 5.17998e-20)
(0.0779303 3.16161 2.19897e-19)
(0.0702889 3.18691 -1.00812e-19)
(0.0235532 3.12921 0)
(0.667587 0.311733 0)
(0.578197 0.364212 0)
(1.09518 0.660178 -8.4973e-20)
(1.12321 0.796369 1.3515e-19)
(1.15961 0.553076 0)
(1.20443 0.504338 0)
(1.01637 0.0136191 -2.17682e-19)
(1.01511 0.0147427 2.71859e-19)
(1.02504 -0.0104188 0)
(1.02279 -0.0131139 0)
(1.00646 0.00242724 0)
(1.0102 0.0035315 0)
(1.00442 0.00182612 0)
(1.00977 0.00602582 0)
(1.00816 0.00607507 0)
(1.00442 0.00440706 0)
(0.0951297 1.35041 0)
(0.0919314 1.31276 0)
(0.116549 1.37414 0)
(0.135151 1.40166 0)
(0.149359 2.59134 0)
(0.191625 2.64698 -9.74126e-20)
(0.0990025 2.64818 0)
(0.0933736 2.65011 5.86194e-21)
(0.0317625 2.68072 7.73635e-20)
(0.0920489 1.0844 0)
(0.0207755 0.942324 0)
(0.144085 1.17902 0)
(0.0394639 1.13174 0)
(0.0426307 2.02162 1.08744e-19)
(-0.0765966 2.63804 -1.11576e-19)
(-0.0208533 2.66055 -1.20896e-19)
(-0.0539064 2.66985 0)
(-0.132197 2.65775 2.45684e-19)
(-0.1705 2.62408 1.52021e-19)
(0.0336571 2.11309 -6.92159e-20)
(-0.0549892 2.51672 1.47624e-19)
(0.0079633 2.49229 1.47321e-19)
(1.01641 0.0361234 2.14923e-19)
(1.0106 0.021299 -2.66041e-19)
(1.00854 0.0406428 -2.19448e-19)
(0.991216 0.0206202 2.81694e-19)
(1.05978 0.00390448 0)
(1.04611 -0.0113164 0)
(1.08266 0.0233009 0)
(1.0671 0.00362262 0)
(1.06355 -0.00693631 0)
(1.11775 0.0821488 0)
(1.09434 0.040419 0)
(1.09744 0.0317992 0)
(-0.155849 2.11493 2.25375e-21)
(-0.274258 2.03198 0)
(-0.194104 2.02364 0)
(-0.212931 2.5259 -7.14299e-20)
(-0.199626 2.50466 2.98281e-21)
(-0.400424 1.89893 -5.57178e-20)
(-0.332206 1.80384 5.67804e-20)
(-0.354862 1.53929 0)
(-0.347186 1.57462 0)
(-0.31574 1.60544 0)
(-0.244413 1.19039 0)
(-0.123398 1.00894 0)
(0.371319 1.47138 3.16327e-19)
(0.415441 1.48235 1.26483e-19)
(0.587299 2.43503 -6.82086e-20)
(0.407989 2.53136 1.87093e-19)
(0.347399 2.09036 -1.63543e-20)
(1.021 -0.00834302 0)
(1.01543 -0.010039 0)
(1.0148 -0.0161035 0)
(1.00754 -0.00150592 0)
(1.00498 -0.00119792 0)
(1.00768 -0.0047774 0)
(1.00914 -0.00389925 0)
(1.01402 -0.00454904 0)
(1.02234 0.0160401 2.10039e-19)
(1.01837 0.0164185 -2.66685e-19)
(1.02279 0.0179502 -2.08372e-19)
(1.02033 0.0170264 2.61298e-19)
(0.760774 1.29688 0)
(0.697635 1.35102 2.32589e-19)
(0.865293 1.20191 1.34526e-19)
(0.927353 1.14483 -1.7889e-19)
(1.15964 2.61012 -1.97663e-19)
(0.834023 0.100744 1.30618e-19)
(1.13068 0.109209 0)
(1.18353 0.188051 3.63176e-21)
(1.17153 0.152721 1.5818e-22)
(0.995005 0.125955 0)
(0.161716 2.96038 5.72605e-20)
(0.119754 2.86762 -3.15754e-19)
(0.0332145 2.37646 2.05067e-19)
(0.097171 0.0547248 -8.14022e-20)
(0.338032 3.42729 -1.71459e-19)
(0.197667 3.32128 0)
(0.229898 3.35911 2.23138e-19)
(0.258479 3.041 -3.23826e-19)
(0.361604 3.20208 0)
(0.00580944 3.12058 1.1729e-20)
(0.0167376 3.12908 -1.50161e-19)
(0.0147166 3.12497 2.20223e-19)
(0.0356193 3.1401 0)
(0.0338538 3.15061 0)
(1.19548 2.651 0)
(0.553511 0.842967 -1.08308e-19)
(1.05177 0.968649 -7.17774e-20)
(0.957185 1.0592 0)
(0.802355 0.940678 1.40799e-20)
(1.03897 0.868143 1.11932e-20)
(0.364102 0.421664 -2.29414e-19)
(0.70234 0.328404 -8.81038e-21)
(0.691254 0.253225 1.00289e-19)
(0.586547 0.410079 7.69051e-21)
(0.512164 0.372172 -3.14033e-19)
(0.670553 0.359355 0)
(0.699991 0.431455 1.64111e-19)
(0.704981 0.426524 0)
(0.621738 0.396293 0)
(0.61121 0.315407 0)
(0.779214 0.607958 6.5593e-20)
(1.18554 0.277121 -1.07149e-20)
(1.19324 0.409279 0)
(1.21857 0.350722 0)
(0.768684 0.205144 1.48229e-19)
(0.825781 0.543061 -8.40771e-20)
(0.733577 0.518999 1.39141e-19)
(0.923608 0.415713 -1.33977e-19)
(1.0204 0.0144892 1.43276e-19)
(1.01827 0.0142974 -1.45858e-19)
(1.01594 0.0162844 0)
(1.03536 -0.00668482 0)
(1.0292 -0.00908546 -1.32113e-19)
(1.02697 -0.0133007 1.30968e-19)
(1.02545 0.00895151 0)
(1.02394 0.0126654 0)
(1.01128 0.0037883 0)
(1.01443 0.00865675 0)
(1.01482 0.00369445 0)
(1.0138 0.00283347 0)
(0.0669982 1.33602 0)
(0.0609881 1.27204 0)
(0.149529 1.32751 1.18753e-19)
(0.266464 1.45744 9.5428e-20)
(0.153988 1.43183 2.09312e-19)
(0.188474 1.44267 -3.37747e-19)
(0.176567 1.36566 0)
(0.124937 1.59743 9.991e-20)
(0.110221 1.5613 0)
(0.350348 2.03987 2.36328e-20)
(0.354077 2.38239 1.02806e-19)
(0.18414 1.43644 -8.73735e-20)
(0.254772 1.35459 6.95927e-20)
(0.196953 1.34537 -5.5745e-20)
(0.25554 1.29588 1.10985e-19)
(0.225495 1.57771 0)
(0.249336 1.60896 -6.78917e-20)
(0.0422634 2.27652 3.6474e-20)
(0.0444919 2.66786 0)
(0.0671579 2.40513 -6.08256e-20)
(0.0420084 2.42939 0)
(0.0665563 2.65824 -6.95247e-21)
(0.0475176 2.69384 0)
(0.186834 1.49162 1.46404e-19)
(0.160054 1.57664 0)
(0.146021 1.39341 0)
(0.213345 1.37778 -1.65902e-19)
(-0.00773505 2.64506 -1.4592e-20)
(0.0259359 2.69599 -1.01192e-19)
(0.00941794 2.71647 -6.87435e-22)
(0.0865095 2.08492 -1.40824e-19)
(0.143285 1.79729 -5.62508e-20)
(-0.0255206 0.960084 0)
(-0.0217177 0.873825 0)
(0.0531992 1.59994 -1.61248e-19)
(0.106529 1.44791 -1.6428e-19)
(0.0894641 1.58557 2.09302e-19)
(0.0417678 1.60347 0)
(-0.307465 2.33185 2.66611e-19)
(-0.250632 2.531 -9.90245e-20)
(-0.264055 2.52752 3.28084e-20)
(-0.0498384 2.08993 1.66736e-19)
(-0.231607 2.59415 5.81531e-20)
(-0.134782 2.56783 -1.97594e-19)
(1.02174 0.0205134 -1.40584e-19)
(1.01929 0.0266327 1.41873e-19)
(1.01626 0.0183016 0)
(1.01893 0.0576774 2.00733e-19)
(0.997168 0.0501392 -2.33491e-19)
(0.961138 0.0271818 2.68733e-19)
(1.01738 0.0859424 -2.6191e-20)
(1.04144 -0.0069153 0)
(1.04859 -0.00333462 1.2035e-19)
(1.03756 -0.011385 -1.20014e-19)
(1.06688 0.0313422 -6.69418e-21)
(1.05943 0.0134795 5.93511e-20)
(1.06397 0.0429226 0)
(1.0585 0.0370983 -2.18385e-20)
(1.03659 0.0347312 0)
(1.03141 0.0327156 0)
(1.02723 0.0123128 0)
(1.02468 0.0153449 0)
(1.04151 0.0266513 4.53111e-20)
(1.03841 0.0203715 -1.02672e-19)
(1.05193 0.0222663 -4.67157e-20)
(1.05078 0.0225396 -5.30564e-20)
(1.07185 0.0514797 9.74928e-20)
(1.08198 0.0467548 0)
(1.09216 0.0914942 0)
(-0.330005 2.30687 6.89058e-20)
(-0.315034 2.08254 4.48776e-21)
(-0.316277 2.12653 0)
(-0.229991 2.31017 -6.95446e-20)
(-0.163391 2.17626 -6.52212e-21)
(-0.194459 2.24257 1.29736e-20)
(-0.199331 2.64086 -1.24307e-19)
(-0.226204 2.59657 1.09778e-20)
(-0.236149 2.59101 -4.46062e-20)
(-0.21886 2.60307 9.04841e-20)
(-0.222938 2.58261 -1.08726e-19)
(-0.46181 1.74165 -6.46009e-21)
(-0.384257 1.92575 -1.21743e-19)
(0.354879 1.40123 -1.55577e-19)
(0.352176 1.35125 -1.45241e-19)
(0.642304 1.40095 -2.24842e-19)
(0.509833 1.46735 -1.22144e-19)
(0.567645 1.44131 0)
(0.578459 2.41067 5.75536e-20)
(0.647993 2.40256 1.00615e-19)
(0.406014 2.50802 3.53773e-20)
(0.407418 2.55788 -7.75292e-20)
(0.522443 2.5177 1.20185e-19)
(0.539633 2.44904 0)
(0.479598 2.49855 -1.56354e-19)
(0.237847 2.57627 2.72419e-19)
(0.348336 2.55954 -3.17037e-20)
(0.283795 2.63689 -4.01557e-19)
(0.916812 2.37951 1.34987e-19)
(0.82293 2.37576 0)
(1.0109 -8.11802e-05 4.70234e-21)
(1.01513 -0.00550173 -3.89215e-21)
(1.0173 -0.00355839 -6.96275e-20)
(1.01465 -0.000999477 7.04121e-20)
(1.0121 0.000683649 0)
(0.624998 1.2673 0)
(0.63359 1.14853 0)
(0.730998 1.05407 0)
(0.631288 1.11565 0)
(1.18482 2.62285 2.69325e-20)
(1.07562 2.36613 0)
(0.854136 2.20959 -4.06575e-22)
(0.823458 2.47403 0)
(0.918155 2.55802 -6.75302e-21)
(0.95614 2.51473 4.39343e-21)
(0.838034 0.14978 0)
(0.81198 0.133892 3.70332e-20)
(0.925899 0.122791 1.96217e-19)
(0.855 0.115002 -7.72874e-20)
(0.844528 0.0622392 -2.34205e-19)
(1.04677 0.218908 -1.32981e-19)
(0.971615 0.281077 -6.30949e-21)
(0.905845 0.264622 1.79749e-19)
(0.987114 0.202474 1.37068e-19)
(0.941952 0.159745 -2.49717e-19)
(0.916221 0.169288 3.19371e-20)
(0.939632 0.226351 -6.39049e-20)
(0.920776 0.192384 0)
(0.98123 0.160409 1.2045e-19)
(1.02978 0.167982 0)
(1.0236 0.197808 0)
(1.08213 0.113775 4.25319e-20)
(1.06064 0.16123 -5.62162e-21)
(1.04426 0.22212 -2.23368e-20)
(1.08175 0.196077 0)
(1.02661 0.038906 1.07651e-19)
(1.0486 0.0487185 1.27578e-19)
(1.03884 0.0357244 -1.05872e-19)
(1.04939 0.0548731 -8.5962e-20)
(1.02323 0.0611225 -1.41662e-19)
(0.985239 0.126134 0)
(1.00406 0.0823726 0)
(0.972476 0.0462056 -9.67624e-20)
(0.92827 0.0585334 3.95653e-20)
(1.03931 0.0844676 1.20839e-19)
(1.06028 0.11075 -1.27241e-19)
(1.06653 0.137205 1.13814e-19)
(1.02638 0.130001 0)
(1.06826 0.0982622 0)
(1.05741 0.0762345 -5.28804e-20)
(1.05048 0.0830681 -9.73052e-20)
(0.586057 1.09666 -2.63747e-20)
(0.628445 1.40991 6.28707e-20)
(1.16427 2.74802 2.64298e-20)
(1.24094 3.08092 -3.01396e-20)
(1.25147 2.72 2.30483e-19)
(1.28306 2.71767 -1.47794e-19)
(1.16935 2.36175 8.65255e-21)
(1.22901 2.97588 6.71632e-20)
(1.24958 2.94559 -6.4932e-20)
(1.24672 3.23707 -1.34198e-19)
(1.3699 2.97536 1.55141e-19)
(1.30893 2.8994 0)
(0.548701 0.847728 -7.20699e-21)
(0.126083 1.26281 1.73228e-19)
(0.543594 0.481732 1.53383e-19)
(0.356016 0.235854 1.61189e-19)
(0.528789 0.413048 1.77143e-19)
(0.549996 0.482534 -2.81777e-19)
(0.544302 0.499176 2.31388e-19)
(0.495376 0.425705 -9.12269e-20)
(0.42547 0.359173 2.0779e-19)
(0.769779 0.259484 -8.32481e-20)
(0.729275 0.289626 0)
(0.724906 0.22996 3.91228e-21)
(0.718197 0.52227 8.43138e-20)
(0.690452 0.485377 -3.11969e-19)
(0.601064 0.491798 5.88439e-21)
(0.618451 0.474382 0)
(0.666173 0.728497 7.3789e-20)
(0.819151 0.770228 3.47855e-20)
(0.739867 0.847648 -4.37301e-20)
(0.85283 0.795969 -1.22278e-20)
(0.878063 0.824084 3.43534e-21)
(0.885469 0.828065 -3.52902e-21)
(0.828585 0.631055 -1.11656e-19)
(0.89711 0.698121 1.13972e-20)
(0.948227 0.700184 0)
(0.929764 0.667182 -1.58422e-20)
(0.997619 0.305196 3.1813e-20)
(1.08892 0.28071 1.7681e-20)
(1.03051 0.256184 5.35523e-20)
(0.980819 0.348524 -7.11944e-20)
(1.02126 0.412962 0)
(1.06609 0.39988 0)
(0.897246 0.346673 2.55089e-21)
(0.838389 0.287738 0)
(0.858241 0.278031 9.02432e-20)
(0.895038 0.272338 -3.91244e-21)
(0.913725 0.417718 3.68365e-19)
(0.872003 0.483024 9.47829e-20)
(0.873703 0.446972 -1.17545e-19)
(0.802711 0.434775 1.26183e-19)
(0.787901 0.438105 8.41275e-20)
(0.752891 0.42232 -8.18717e-20)
(1.02815 -0.000896331 1.12221e-19)
(1.02004 -6.68425e-07 0)
(1.01853 0.000920228 7.52561e-20)
(1.02104 -0.00232766 -1.68808e-19)
(1.02199 0.00426291 8.21857e-20)
(1.02041 0.010842 -1.7322e-19)
(1.02147 0.0103843 0)
(1.02146 0.0102913 -3.58719e-20)
(1.01593 0.00761267 9.05764e-20)
(1.01694 0.0100525 -4.59414e-20)
(1.01761 0.00928185 3.37533e-20)
(0.0868363 1.26317 0)
(0.134007 1.33287 0)
(0.068998 1.31238 0)
(0.0548076 1.21459 0)
(0.0597958 1.38016 -2.59209e-19)
(0.0829369 1.34356 8.46089e-20)
(0.11005 1.49639 5.50696e-20)
(0.0822409 1.34456 -6.15857e-20)
(0.0648505 1.46448 1.61329e-19)
(0.0588291 1.44508 -1.21904e-19)
(0.0606542 1.36607 -1.72828e-22)
(0.0669014 1.37373 1.59076e-19)
(0.0766367 1.34128 2.32057e-20)
(0.0756278 1.39749 2.08116e-20)
(0.107742 2.39244 6.63089e-20)
(0.0952354 2.42636 0)
(0.16892 2.08492 -9.22222e-21)
(0.106715 1.71268 -3.86108e-20)
(0.229157 2.07834 7.88751e-21)
(0.210631 2.45626 0)
(0.272375 2.41212 -6.38281e-20)
(0.304109 2.4147 4.52246e-20)
(0.215365 2.02663 1.58659e-20)
(0.144445 2.18747 8.15384e-21)
(0.15357 2.31706 0)
(0.0226042 1.88583 1.63892e-19)
(-0.0167388 2.39757 1.75483e-19)
(-0.00685029 2.17727 0)
(0.00916856 2.4603 -5.45362e-21)
(-0.000249612 2.31197 -7.43358e-20)
(0.155435 1.42127 -3.25499e-20)
(0.0617405 1.27605 5.42515e-19)
(0.0554878 1.36177 -1.6239e-19)
(0.159253 1.48315 -1.73232e-19)
(0.166221 1.53933 0)
(-0.000234234 1.24697 0)
(-0.148886 1.03177 -1.69685e-19)
(-0.16212 1.14951 5.57231e-20)
(-0.0782928 1.17954 0)
(-0.0922365 0.949103 -1.28851e-19)
(-0.089251 0.932752 2.52542e-19)
(1.04006 0.00938499 0)
(1.04587 0.00549155 -1.12274e-20)
(1.03894 0.0182549 -8.18819e-20)
(1.0477 0.0144086 0)
(1.05107 0.0141789 0)
(1.03541 0.0097938 -2.57192e-21)
(1.03155 0.0100575 1.3472e-19)
(1.03096 0.0147211 1.6444e-19)
(1.02635 0.0186755 0)
(1.02445 0.0191954 0)
(1.03503 0.0218178 8.26885e-20)
(1.02719 0.0249449 0)
(1.02666 0.0233407 0)
(-0.287369 2.29398 0)
(-0.400747 2.02906 -2.22234e-20)
(-0.376766 2.182 -5.8886e-20)
(-0.16951 1.26718 0)
(-0.399645 1.87275 -1.16226e-19)
(-0.418273 1.65333 4.3251e-20)
(-0.324268 1.3066 0)
(0.383202 1.70443 0)
(0.356692 1.27434 2.34302e-19)
(0.307323 1.33836 0)
(0.411193 1.26771 -3.06993e-19)
(0.455067 1.4395 0)
(0.435077 1.38029 1.44157e-19)
(1.02262 2.69855 -2.57016e-21)
(0.946665 2.41623 -1.65559e-19)
(0.885053 2.17507 1.98662e-19)
(0.841353 2.36768 6.00628e-20)
(0.834918 2.52144 0)
(0.900353 2.51106 0)
(0.880416 2.38225 0)
(0.893817 2.3496 -2.13677e-19)
(0.689068 2.49053 -2.3668e-20)
(0.797955 2.48669 -8.78254e-21)
(0.809303 2.45534 6.95718e-21)
(0.680379 2.38163 0)
(0.784868 2.38128 0)
(0.741316 2.38952 -1.01826e-19)
(0.763396 2.51067 0)
(0.603736 1.0906 0)
(0.492473 0.934967 -2.31634e-20)
(0.567269 0.952854 -2.26111e-21)
(0.528635 1.06635 0)
(0.534713 1.02304 3.58187e-20)
(0.762146 0.868326 -4.79405e-22)
(0.764736 0.993806 0)
(0.7402 0.941207 -1.39151e-20)
(0.628378 1.02802 0)
(0.638247 0.934274 0)
(1.16547 2.76319 6.59378e-21)
(1.14337 2.82868 3.8134e-20)
(0.942681 2.34953 -9.33831e-20)
(0.903427 2.32664 6.32788e-21)
(1.12689 2.73444 0)
(1.0773 2.70428 -7.72721e-21)
(1.0846 2.48657 -5.02452e-20)
(0.981753 2.23125 -1.31487e-20)
(0.495869 1.376 0)
(0.501018 1.07736 2.31155e-20)
(0.541752 1.13097 0)
(0.862524 0.214117 0)
(0.8163 0.171212 0)
(0.774602 0.150628 0)
(0.85156 0.222598 -1.42662e-19)
(0.789414 0.220784 8.81508e-20)
(0.936539 0.0486661 -8.21057e-20)
(0.952439 0.0979859 0)
(0.925278 0.103462 3.63778e-20)
(0.879553 0.0819415 1.49029e-19)
(0.86941 0.0415532 -9.20798e-20)
(1.17746 3.37251 -4.06656e-19)
(1.22926 3.29228 0)
(1.14296 3.39086 -7.73548e-19)
(0.642123 3.54885 6.81343e-19)
(0.85617 3.11271 1.29041e-19)
(0.515896 0.872621 1.16189e-19)
(0.430072 0.868876 0)
(0.337398 0.524034 -3.6797e-20)
(0.4535 0.685084 1.77279e-19)
(0.540686 0.489644 -4.89055e-20)
(0.516955 0.530176 5.66392e-20)
(0.646129 0.538084 1.19583e-19)
(0.676756 0.554439 0)
(0.640017 0.615455 0)
(0.594311 0.554126 0)
(0.941087 0.580872 -1.29292e-20)
(0.874104 0.529362 -9.10646e-20)
(0.897262 0.558961 5.16361e-20)
(0.928528 0.500387 -6.80537e-20)
(1.03517 0.471246 0)
(1.02943 0.551293 -7.2368e-21)
(0.828853 0.388929 -1.85765e-19)
(0.835036 0.37369 -2.12077e-19)
(0.784357 0.381654 1.44968e-19)
(0.781394 0.355495 -1.59825e-19)
(0.835196 0.314032 -1.19713e-19)
(0.788197 0.310789 1.47409e-19)
(1.02649 0.00497161 -8.65884e-20)
(1.02604 0.00544112 1.78958e-19)
(1.02927 -0.00130907 1.07092e-19)
(1.03268 0.000250496 -1.30278e-19)
(1.03299 0.00709497 0)
(1.02994 0.00780638 -2.12048e-19)
(0.0339463 1.64745 -2.3182e-20)
(0.0403119 1.56702 0)
(0.0801349 1.68811 -1.77178e-19)
(0.0897847 1.67732 1.6247e-19)
(0.0849543 1.50404 -1.02851e-19)
(0.0766625 1.48244 0)
(-0.0524245 2.09046 0)
(-0.0418865 1.56963 6.66867e-20)
(-0.198002 1.57866 -6.023e-20)
(-0.297714 1.86995 -1.9969e-20)
(-0.240299 2.29184 1.17836e-19)
(-0.180317 2.26592 -4.77527e-20)
(0.490128 1.38395 1.45217e-19)
(0.488061 1.39176 -1.53206e-19)
(0.434373 1.26763 1.54318e-19)
(0.429495 1.29077 -9.12154e-21)
(0.612094 1.28237 0)
(0.532181 1.37171 1.99166e-19)
(0.547915 1.38089 -1.93233e-19)
(0.440538 1.25678 -1.49338e-19)
(0.494045 1.21555 0)
(0.541136 1.17988 0)
(0.65111 2.44754 3.55263e-20)
(0.670071 2.47924 2.42772e-19)
(0.710487 2.49542 -1.66307e-19)
(0.615112 2.4847 -5.1536e-20)
(0.563091 2.57425 4.99725e-20)
(0.524204 2.55319 -1.39924e-19)
(0.965848 2.37355 -1.07153e-19)
(1.0081 2.39195 0)
(0.906724 2.15556 -1.38079e-19)
(1.04555 2.68648 0)
(1.04756 2.67306 0)
(0.614158 2.2606 5.56196e-20)
(1.03294 3.16131 1.71161e-19)
(0.900691 3.0213 -1.20716e-19)
(0.290529 0.936727 0)
(0.33599 0.783921 -7.35799e-20)
(0.479063 0.752819 -4.28461e-20)
(0.410295 1.98616 0)
(0.478361 2.78757 -9.1352e-20)
(0.438726 2.57164 0)
(0.676329 0.672448 -1.52632e-19)
(0.754447 0.680042 1.93079e-19)
(0.779344 0.620631 -1.87518e-19)
(0.663443 0.642938 -2.18875e-20)
(0.707892 0.598236 -8.87745e-20)
(1.01796 2.76971 -1.29259e-19)
(1.04758 2.83578 1.12338e-19)
(0.664044 2.15341 7.91184e-20)
(0.592924 1.72791 -6.31044e-20)
(0.71567 1.9195 1.92626e-20)
(0.999219 2.4748 -2.79373e-20)
(0.999315 2.46346 -6.06672e-20)
(0.67951 1.88597 -1.93133e-21)
(0.46925 1.35358 -1.78822e-20)
)
;

boundaryField
{
    wall-4
    {
        type            noSlip;
    }
    velocity-inlet-5
    {
        type            fixedValue;
        value           uniform (1 0 0);
    }
    velocity-inlet-6
    {
        type            fixedValue;
        value           uniform (0 3 0);
    }
    pressure-outlet-7
    {
        type            zeroGradient;
    }
    wall-8
    {
        type            noSlip;
    }
    frontAndBackPlanes
    {
        type            empty;
    }
}


// ************************************************************************* //
