/*--------------------------------*- C++ -*----------------------------------*\
| =========                 |                                                 |
| \\      /  F ield         | OpenFOAM: The Open Source CFD Toolbox           |
|  \\    /   O peration     | Version:  4.0                                   |
|   \\  /    A nd           | Web:      www.OpenFOAM.org                      |
|    \\/     M anipulation  |                                                 |
\*---------------------------------------------------------------------------*/
FoamFile
{
    version     2.0;
    format      ascii;
    class       volScalarField;
    location    "16";
    object      p;
}
// * * * * * * * * * * * * * * * * * * * * * * * * * * * * * * * * * * * * * //

dimensions      [0 2 -2 0 0 0 0];

internalField   nonuniform List<scalar> 
918
(
0.229739
0.909862
0.00853219
0.229055
-0.000639829
0.876969
-0.840945
0.412827
0.209797
-0.295721
0.0174285
0.201105
0.737611
0.505316
-1.46691
0.010336
0.367351
-0.730826
0.20851
0.00565092
0.484726
0.216511
0.219499
0.210043
0.26793
0.49668
0.61842
0.0030404
-0.00270874
-0.00216005
0.00346516
-0.00409572
0.00177624
0.760586
0.811702
0.834367
0.180262
0.0114292
-0.690866
-0.769303
-0.757116
-0.902472
0.402219
0.405786
-0.486758
0.415342
0.430901
0.197263
0.209117
0.210086
0.211267
0.210124
0.211538
0.19784
-0.348267
-0.399686
-0.212583
-0.155324
0.0607313
0.0177259
0.00981815
0.0248002
0.0212026
0.138699
0.197561
0.196043
0.207043
0.215274
0.849411
0.821292
0.84743
0.761263
0.777696
0.715526
0.688018
0.524795
0.546369
0.491825
0.479602
-1.90902
-2.87903
-0.866163
-0.606593
0.00122364
0.0165762
0.0215615
0.351814
0.359461
0.360263
0.373185
0.786292
-0.718667
-0.839617
0.208475
0.207388
0.216258
0.216907
0.21292
0.212036
0.012098
0.0171871
-0.00454834
0.00322782
0.00250409
0.464843
0.462023
0.210527
0.207435
0.223296
0.245372
0.235329
-0.0182478
0.281144
0.304614
0.298783
0.475895
0.475546
0.482218
0.591933
0.555504
0.655502
0.678742
0.00934662
0.00254071
0.00786821
0.00604449
0.00817124
0.175016
0.168789
0.191551
0.182744
0.184699
-0.0693768
-0.205008
0.0926502
0.110972
-0.59156
-0.661991
-0.786347
-0.789098
-0.911373
0.20741
0.38744
0.392029
-0.500266
-0.417226
-0.567122
-0.343081
-0.41593
0.188585
0.195073
0.190234
0.204627
0.199144
0.201083
0.213466
0.210507
0.212042
0.231762
0.324991
0.116703
0.130429
-0.601687
-0.462504
-0.563468
-0.0959709
-0.0691576
0.0645238
0.0714774
0.0507793
0.0477279
-0.0350466
0.000953534
-0.0190451
0.0227256
0.0217985
0.132358
0.123505
0.147476
0.153918
0.189049
0.190186
0.193369
0.192616
0.63861
0.661062
0.668614
0.642213
-3.88704
-6.70538
-0.273615
-0.129458
0.00233784
0.00265518
0.00107919
0.00305822
0.00317744
0.00139067
0.0276241
0.0259
0.0240338
0.0268046
0.336284
0.342083
0.73685
0.724607
0.702689
0.676577
0.196738
0.198819
0.204214
0.199991
0.0220883
0.0191237
0.0223992
0.429663
0.448451
0.448093
-0.0522801
-0.141171
0.0295194
0.0564989
0.3231
0.30839
0.325853
0.363918
0.402195
0.686152
0.704533
0.702773
0.711234
0.755187
0.771514
0.736959
0.158581
0.166002
0.162144
0.196174
0.192863
0.193858
0.189088
0.191038
0.188246
-0.359307
-0.747418
0.159163
0.168462
0.147047
0.149756
0.291811
0.378602
0.367912
0.377211
0.380719
-0.277724
-0.345313
0.111876
0.11037
0.0810391
0.111739
0.0955361
0.60991
0.570172
0.620172
0.593535
0.554888
0.580938
-0.701025
-2.22867
-1.33237
0.238419
0.0417707
0.134509
0.0439691
0.0281187
0.0358064
0.68226
0.759502
0.39552
0.572674
0.53308
0.441302
0.472035
0.529492
0.453989
0.48925
0.524778
0.503593
0.164303
0.158926
0.139692
0.463015
0.521941
-0.167148
-0.21474
-0.273319
0.0745382
0.090104
0.0937447
0.72695
0.590253
0.68179
0.207448
0.208107
0.0122953
0.0227364
0.212215
0.212359
0.00646613
0.00694626
0.112972
-1.18124
-0.171672
0.200691
0.190993
0.207684
-0.365966
0.240986
0.010943
0.0775943
0.0494374
0.199939
0.14877
0.114624
0.00642473
0.0164253
0.0118329
-0.54788
0.205119
0.203431
0.207303
0.208266
0.208995
0.00770919
0.0101357
0.00698544
0.0099059
0.0101412
0.00725345
0.17455
0.18797
-0.488749
0.207317
0.209517
0.209346
0.202695
0.208043
0.206047
0.014218
0.00880498
0.0083304
-0.0666086
0.0483425
0.372288
0.486685
0.318778
0.0924986
-0.152448
0.268187
0.337442
0.23322
0.403262
0.370254
0.399738
-0.11302
-0.26018
-0.105543
-0.161729
0.198135
0.197053
0.18946
0.187767
0.202894
0.201085
0.205375
0.202478
0.20507
0.206374
-0.287872
-0.210864
-0.419754
-0.466555
0.162626
0.354358
0.114294
0.102527
0.119658
0.0159878
0.0208432
0.00790074
0.00529049
0.0356743
0.0492815
0.0721863
0.0536962
0.0494168
0.0312773
0.0327049
0.0419842
0.0425774
0.194661
0.191981
0.199151
0.206041
0.155938
0.15932
0.130806
0.146149
0.136436
0.0807341
0.112433
0.0916527
0.00729566
0.0074257
0.00518767
0.0195574
0.0234303
0.0119058
0.00936565
0.0127482
0.0102191
0.00912498
0.0144312
0.017216
-0.518836
-0.608169
0.665813
0.55028
-0.274412
0.194031
0.200482
0.197048
0.202261
0.205386
0.20601
0.203754
0.200663
0.188639
0.190954
0.186723
0.186458
-0.430382
-0.566538
-0.384643
-0.450257
-0.180574
0.313
0.0596079
0.00104533
-0.00325516
0.205208
0.572024
0.386249
0.439233
0.465797
-0.680512
-0.280304
-0.61007
0.000425247
-0.175631
0.373236
0.425855
0.4485
0.39462
0.34256
-0.437171
0.201063
-0.359452
-0.322559
-0.13123
-0.230819
0.417074
0.354134
0.362314
0.387551
0.410562
0.363555
0.343998
0.343103
0.378144
0.383106
0.176619
-0.0325793
-0.0800875
-0.114834
0.339533
0.218259
0.273548
0.192289
0.192921
0.196283
0.195082
0.179063
0.18525
0.180291
0.186309
0.188731
0.198632
0.19818
0.194134
0.196636
-0.128057
-0.0865314
-0.379271
-0.527432
-0.509305
-0.54579
-0.479361
-0.577142
-0.451733
-0.298994
-0.00736088
-0.663846
-0.544718
-0.573314
-0.540747
-0.479863
-0.441587
0.0581548
0.132112
0.0631501
0.105862
0.131632
0.142144
0.0227129
0.0185534
-0.00597178
0.0122868
0.0681462
0.0765366
0.0906222
0.03425
0.0310647
0.0210904
0.0205614
-0.0109773
-0.0189828
-0.00797808
-0.00311233
0.0196862
0.0210926
0.0249723
0.0324437
0.0322657
0.0376807
0.186854
0.188175
0.18761
0.201357
0.211879
0.226362
0.196069
0.173782
0.166699
0.167475
0.146013
0.152627
0.150932
0.160977
0.179083
0.186533
0.184224
0.186962
0.173395
0.174572
0.161355
0.165286
0.147028
0.129736
0.119179
0.0157489
0.0100332
0.0123174
0.0130259
0.00934165
0.0106213
0.0357513
0.0291649
0.033236
0.0270563
0.0285935
0.0159942
0.0157219
-0.452588
-0.398713
-0.519868
-0.546579
-0.618795
0.566711
0.688148
0.489556
0.291503
0.298494
0.520637
0.650114
0.308596
0.366273
0.483842
0.181599
0.486617
0.199079
0.199202
0.196852
0.196073
0.196798
-0.338968
-0.23929
-0.228005
-0.174207
-0.0559533
0.0575355
-0.0626758
-0.133284
-0.00211936
0.0131557
0.308276
0.323646
0.267271
0.293215
0.29204
0.120225
0.195655
0.24713
0.204663
0.245861
0.267031
0.232481
0.259556
0.208109
0.168797
0.168161
0.11697
0.133383
0.111609
0.0966565
0.189335
0.169266
0.178723
0.170742
0.190452
0.218077
0.212915
0.236228
0.250403
0.178583
0.140032
0.149489
0.176776
0.13878
0.150963
0.163887
-0.136214
-0.229495
-0.146422
-0.424832
-0.329315
-0.3467
-0.390184
-0.361183
-0.0740088
-0.773678
-0.738284
-1.37478
0.13859
0.605274
0.368076
0.335812
0.406109
0.380792
0.38083
0.415916
0.425121
0.330263
0.347541
0.349879
0.306637
0.331716
0.357079
0.357128
0.180964
0.0678216
0.0542828
0.025129
-0.0971058
-0.0658952
0.140828
0.0628142
-0.0102887
-0.00455824
0.156437
0.0529379
0.112624
0.149481
0.0837038
0.0414542
0.229754
0.299991
0.289762
0.263391
0.184257
0.197649
0.220414
0.252461
0.280001
0.31741
0.187876
0.190924
0.192898
0.191303
0.186871
0.19021
0.190312
0.192488
0.1935
0.196106
0.195193
-0.00681871
-0.0155195
-0.058687
-0.0279225
-0.256234
-0.295513
-0.372738
-0.327041
-0.0260312
-0.0564818
-0.178704
-0.0941039
-0.0593603
-0.0386411
-0.0523136
-0.0670988
-0.20409
-0.261166
-0.261199
-0.0631248
0.0727568
-0.0258413
-0.326477
-0.216938
-0.163743
0.0155342
0.0530632
0.0465596
0.040882
0.0408656
0.0255602
0.0221882
0.0197529
0.0233733
0.0237155
0.0199709
0.019801
0.0205278
0.0213373
0.0206951
0.0204431
0.174496
0.168964
0.170215
0.165436
0.164959
0.175741
0.179593
0.181116
0.18571
0.187642
0.179236
0.18349
0.186236
0.0242489
0.0197682
0.0220945
0.0202182
0.0202372
0.0177091
0.0176633
-0.119561
-0.29757
-0.239507
-0.353777
-0.451705
-0.407881
0.144287
0.105542
0.131166
0.34899
0.213632
0.104513
0.179729
0.303062
0.00404704
0.17668
0.0206078
0.551741
0.420169
0.568144
0.223057
-0.10346
0.0455606
0.0917502
-0.0993212
-0.0158367
-0.00531326
-0.116458
-0.0820451
-0.0530795
0.0410041
-0.0819632
-0.119619
-0.369571
-0.199091
-0.0413562
-0.0619694
0.0691604
0.124565
-0.106889
-0.175761
-0.210186
0.294955
0.316714
0.333945
0.304006
0.32692
0.254353
0.244959
0.262368
0.272806
0.267571
-1.10853
-0.81916
-1.76634
-1.0862
-0.635937
0.170293
0.131147
0.400964
0.302747
0.380749
0.364412
0.330515
0.296454
0.302017
0.337656
0.0514289
0.15877
0.135753
0.137519
0.0447988
-0.017837
0.265376
0.257476
0.29833
0.321647
0.288827
0.322354
0.183194
0.182924
0.18573
0.182397
0.180003
0.181833
-0.0560139
-0.0369978
-0.158265
-0.206085
-0.216982
-0.160845
0.0313163
0.0257316
0.0220269
0.0232466
0.028606
0.0306794
-0.16115
-0.200042
-0.313122
-0.21884
-0.333009
-0.397365
-0.418473
-0.337713
-0.239625
-0.240895
0.103377
0.356103
0.195899
0.331606
0.165267
0.205394
0.132653
0.123538
0.151784
0.0355846
0.115599
-0.134927
-0.6329
-0.544258
0.410725
0.436738
0.227274
0.0359843
-0.190317
0.000496273
0.213969
0.155605
0.196572
0.261765
0.257055
-0.341845
-0.267467
-0.029403
0.193674
-0.105736
-0.117528
-0.127436
0.0455189
-0.0130741
)
;

boundaryField
{
    wall-4
    {
        type            zeroGradient;
    }
    velocity-inlet-5
    {
        type            zeroGradient;
    }
    velocity-inlet-6
    {
        type            zeroGradient;
    }
    pressure-outlet-7
    {
        type            fixedValue;
        value           uniform 0;
    }
    wall-8
    {
        type            zeroGradient;
    }
    frontAndBackPlanes
    {
        type            empty;
    }
}


// ************************************************************************* //
