/*--------------------------------*- C++ -*----------------------------------*\
| =========                 |                                                 |
| \\      /  F ield         | OpenFOAM: The Open Source CFD Toolbox           |
|  \\    /   O peration     | Version:  4.0                                   |
|   \\  /    A nd           | Web:      www.OpenFOAM.org                      |
|    \\/     M anipulation  |                                                 |
\*---------------------------------------------------------------------------*/
FoamFile
{
    version     2.0;
    format      ascii;
    class       surfaceScalarField;
    location    "16";
    object      phi;
}
// * * * * * * * * * * * * * * * * * * * * * * * * * * * * * * * * * * * * * //

dimensions      [0 3 -1 0 0 0 0];

internalField   nonuniform List<scalar> 
1300
(
3.75095
5.62643
-6.13562
3.75095
-5.95185
5.62643
-4.53788
4.53788
-1.38957
1.38957
1.8767
1.87425
-3.35289
3.35289
-4.54046
4.54046
-2.75348
2.75348
-5.24642
5.24642
-5.06748
5.06748
4.68352
-4.68352
-4.85741
4.85741
-1.82684
1.82684
-3.71097
3.71097
3.1725
-3.1725
-4.87811
4.87811
-0.480732
0.480732
-0.55355
4.3045
3.1974
3.1974
-2.47243
2.47243
-4.85107
4.85107
6.2183
-6.2183
9.30989
-9.30989
-3.17427
-3.40792
1.32418
-8.15168
-4.62767
-4.62767
-8.44042
8.44042
-2.81399
2.81244
2.92289
-2.92289
-1.74435
1.74435
-4.50887
-0.0290116
-4.50887
4.49648
0.0413964
4.49648
-1.49031
0.10074
-1.49031
4.06971
-4.06971
1.22497
0.164596
1.22497
3.06603
-3.06603
-1.87721
3.75392
1.87374
-1.87169
6.17619
-1.87926
3.75351
-5.13525
5.13525
-3.16362
-0.189265
-3.16362
3.68033
-0.32744
3.68033
-5.2971
5.2971
-4.44877
-0.0916928
-4.44877
4.60605
-0.0655867
4.60605
2.97656
-2.97656
-2.7862
0.0327236
-2.7862
2.70097
0.0525103
2.70097
0.353582
5.27285
-5.98001
8.79245
-5.27285
0.0264258
5.20849
0.0379288
5.20849
-5.10588
0.038399
-5.10588
5.01007
0.0574131
5.01007
4.77544
-0.0919203
4.77544
-4.79804
0.114513
-4.79804
-3.32511
-3.41948
-4.9592
0.101788
-4.9592
-1.86578
0.0389429
-1.86578
1.76739
0.0594492
1.76739
-3.52913
3.52913
-4.13909
0.428126
-4.13909
3.1279
0.044601
3.1279
1.86866
1.88229
5.61962
-5.61962
2.44712
-4.80715
-0.0709545
-4.80715
-4.96172
-4.34818
4.96172
-0.0836081
-0.798619
0.317887
-0.798619
3.15921
0.0381895
3.15921
2.62743
0.0735346
-2.62743
0.155005
3.39472
-3.39472
1.8275
0.644923
1.8275
-5.57208
5.57208
4.94853
0.0615451
-4.94853
0.0974549
6.15695
0.0613477
6.15695
-6.19957
-0.0187285
-6.19957
3.36262
-6.77054
-3.41636
4.74627
0.111143
-4.74627
0.118599
2.8987
0.024196
2.8987
-2.90723
2.90723
-2.97438
0.0514839
-2.97438
-2.16725
0.422903
-2.16725
1.41357
0.330774
1.41357
-4.38584
-0.123025
-4.38584
-4.41824
0.279145
4.41824
0.0782449
0.891472
-0.891472
-1.60129
0.110988
-1.60129
-4.22016
-0.165685
4.22016
-0.150449
-3.94992
-0.119791
-3.94992
-3.02549
0.0511099
3.02549
0.0405458
3.11208
0.0471302
-3.11208
0.0460517
-1.87084
3.75314
-1.88011
3.75385
-4.93833
-0.196916
-4.93833
5.18628
-0.0510293
5.18628
3.35361
0.357356
-3.35361
0.189987
4.05587
-0.375547
4.05587
-5.34136
0.0442534
-5.34136
5.22017
0.0769371
5.22017
4.29896
-0.243083
-4.29896
-0.149809
4.66537
-0.0593215
4.66537
3.02709
-0.0505317
3.02709
-2.93489
-0.0416715
-2.93489
2.81024
-2.81024
2.8028
0.00744424
-2.8028
0.0165962
-11.1327
11.114
-0.0350585
-11.0977
5.17343
5.17343
4.1985
0.576943
4.1985
-5.00914
0.211103
-5.00914
3.3202
-6.73656
3.41105
-6.73616
3.41228
-11.564
3.34907
-6.76855
5.10181
-5.10181
5.04223
0.05958
-5.04223
0.0830264
-1.86108
-0.00470077
-1.86108
-2.92272
-0.606415
-2.92272
4.04426
-0.515125
4.04426
-3.03098
3.03098
-3.08281
0.051831
3.08281
0.0450839
4.73327
-0.0679004
-4.73327
-0.0738851
1.03115
0.19382
-1.03115
0.232532
3.59004
-0.195321
3.59004
-3.21722
-0.177502
-3.21722
-1.83721
-0.0238698
1.83721
-0.00970962
-5.81868
0.246606
-5.81868
-11.1907
0.0930542
-11.1528
-6.10651
-6.10651
2.3339
11.1264
-2.90482
-0.030069
2.90482
-0.00612637
2.97304
0.0579411
-2.97304
0.0658101
-2.84701
0.0367695
2.84701
0.0602225
-2.55769
0.390442
-2.55769
-0.980748
0.980748
-1.16832
0.187575
1.16832
0.245251
1.14547
-0.253996
1.14547
1.70009
0.0672993
-1.70009
0.0987968
-3.84635
-0.103563
-3.84635
5.27563
-0.0893539
5.27563
-3.10198
-0.115239
3.10198
-0.0748851
-0.0332995
11.1473
-5.14014
0.0342516
5.14014
-11.2086
11.2429
-3.23885
0.681156
3.23885
0.959652
5.29623
0.275846
-5.29623
0.287094
5.15765
0.0625187
-5.15765
0.0558381
-2.40998
-0.512734
-2.40998
-4.59044
-0.347892
4.59044
-0.546186
-11.4761
-0.200906
11.677
-11.4186
6.01959
0.137359
-6.01959
11.3802
-0.857259
-0.0342133
0.857259
0.123489
1.47262
-0.327148
1.47262
3.75075
-0.160707
-3.75075
-0.0956048
-5.34835
0.00699783
5.34835
-0.0727217
-1.90628
-0.5037
1.90628
-0.433666
-4.26658
4.30477
1.90962
-3.33088
-3.43966
-7.67906
1.85104
1.90209
4.29816
-7.14706
-4.41691
-7.02846
7.27547
-6.98837
-9.30316
9.21124
7.44673
-7.56652
-5.77864
5.82373
6.48151
-6.44097
1.87879
1.87512
6.74803
-6.9373
-15.0566
14.8597
9.71564
-9.80733
11.6528
-11.6086
-12.869
12.9315
-5.75195
5.78468
-6.6291
6.58743
-6.79694
6.72206
-3.27965
-3.45651
9.23833
-9.13654
11.7129
-11.7839
-7.62329
8.05142
3.38318
0.921588
3.43031
-1.88158
3.76037
-1.87193
3.78155
3.42017
-6.69982
3.31639
-6.75606
6.08511
5.6278
-6.0015
-1.67756
-5.84772
5.87192
-5.82312
5.88334
8.96281
-8.99182
-1.88588
3.76101
-1.86797
3.77006
-3.42348
-2.35516
3.37888
0.919281
5.65148
3.58685
-5.76262
-1.26584
-7.65449
7.49379
-7.95965
7.78215
-0.45894
5.82898
-5.37004
4.39213
-1.55473
7.38371
5.72074
5.93184
5.86889
-5.59305
1.11948
-6.48952
-6.39207
-2.66046
2.77145
2.67577
-2.51117
5.87711
1.56962
5.72666
-5.47066
-2.09586
-5.57423
3.81518
2.00855
3.86701
4.05622
2.42529
4.10733
3.02825
-3.03663
0.00838065
-3.05855
6.0868
0.724374
-5.41371
-4.49443
4.99832
1.74971
4.67088
-4.49372
-2.44357
-4.30374
-9.62828
-5.42831
-9.97617
8.90845
5.95122
8.85742
-9.34844
9.27572
6.60874
3.1069
6.54315
-6.12999
-3.67734
-6.2798
10.6214
-2.07527
-8.54615
-7.41535
-5.45365
7.33842
4.31442
7.75913
5.1724
7.81497
3.40867
7.21275
-7.72308
2.26943
-3.84994
-1.90201
-3.83334
3.74405
2.04062
3.79656
-4.12844
-2.50066
-4.15851
-4.19669
-2.60026
4.24722
2.34021
-4.30517
-3.65448
4.42041
2.30165
3.12559
-7.54249
3.64297
-7.09948
-6.45055
-2.68599
-6.36753
4.18902
2.6009
-6.78991
-2.5108
10.9444
-5.31662
9.26686
-7.2436
-4.54026
-7.31748
-6.62192
-1.00137
-6.34278
-8.85772
8.34498
-9.26006
8.74493
13.4977
-6.76016
-6.73754
-3.97065
-2.47031
3.9246
-0.494293
-3.71036
3.71874
0.0500127
3.83156
4.75315
4.25886
-3.88816
-1.93496
-3.82235
3.84572
2.03763
3.88248
6.70666
2.25614
6.74806
-6.42224
-2.56958
-6.54526
9.09644
-8.67354
2.93766
-2.96153
5.20353
2.57862
-5.00821
-2.64629
6.01404
-3.03792
-2.97612
-12.2374
10.602
1.63543
-4.85373
-0.461601
0.0191314
-5.51554
-3.78762
5.40102
0.530813
11.1328
7.34521
-5.51453
5.76113
6.16244
6.22398
-0.168088
5.84639
-5.16523
5.19599
-2.22312
-2.97286
5.26496
-5.43065
-1.2803
-5.23898
3.95868
0.296018
1.90269
-1.58481
-2.08812
-0.572339
-1.98932
1.62299
1.05278
1.81681
0.950241
1.8212
-2.99707
0.589231
2.40784
-2.04683
-1.92194
-3.55942
-0.897727
4.45714
5.47072
2.02307
-5.37512
-0.199111
2.73394
-2.67449
-0.794961
-2.76446
2.01649
-2.81145
-3.52045
-1.77559
5.29603
-3.36986
-0.452491
3.31192
0.555095
-3.791
-2.05673
3.73951
0.367823
-3.14011
6.25023
-3.11011
-5.07507
2.53188
3.55492
4.54043
-4.79097
2.43812
2.35284
-1.23605
4.81585
-0.144965
4.4403
-5.70351
3.25993
4.78149
3.26993
-5.13885
0.83511
-4.8684
10.5226
-8.10514
-2.41744
6.81931
3.70327
7.79141
5.70629
-5.87031
13.6617
-1.12479
-6.98035
5.99319
-2.72326
5.8705
-8.59377
-11.5768
4.59645
-9.67987
9.7119
-0.0320264
-2.41982
-6.92862
12.0997
-1.83945
-10.2602
7.01797
-5.86243
-4.82346
10.6859
-7.9377
8.5008
-3.33101
-5.16979
-7.55361
-4.05497
7.54661
1.72911
-9.81548
12.0849
-2.60272
5.81857
0.724586
5.75925
4.78513
-5.94525
1.16012
3.15258
-6.48359
4.32505
-10.2703
-4.99918
9.72006
-4.72087
-7.68517
-6.91676
-0.768414
1.95786
10.127
-7.13026
5.40974
1.72052
3.34535
0.537138
-3.35279
-0.480554
0.353387
4.45925
-4.81264
4.14995
4.22349
3.38537
1.07388
3.79853
2.07339
-3.7924
-0.366107
-4.05526
1.455
-1.71505
-3.57455
5.02956
-4.00363
0.429082
-2.67057
-3.51622
6.1868
-4.57259
3.08725
3.16298
5.12488
-4.89178
1.37555
-2.41654
-2.47523
2.62808
-4.34313
1.92633
3.10323
4.22797
0.57349
4.96328
4.75678
-7.56417
0.464696
8.34363
-7.0778
1.7739
6.04106
-7.18364
0.266884
-6.10064
1.07533
-6.39194
-5.71459
5.62241
-6.62378
-2.97136
6.04517
0.702889
-6.12342
-0.219361
-5.89659
-2.96113
-6.40029
-3.15498
-6.10507
-9.02529
-1.63349
-7.3918
6.71149
-6.81671
-3.15945
7.3629
1.38203
-7.29879
7.26458
-7.33893
7.01178
0.0946152
3.62413
4.35347
1.88316
-2.38808
4.27124
-4.96263
7.21877
-8.41211
3.44948
3.99305
-6.56263
-4.41907
5.01187
4.08457
5.34265
8.92098
-10.7
1.77903
-10.9533
12.0922
-1.1389
-16.6899
5.73663
-7.76891
2.69336
0.244298
2.68866
0.669013
2.39963
-3.06864
-2.29252
-2.30223
-2.25665
-3.28688
5.54353
1.10749
-3.33146
2.22397
-3.40757
4.51506
-0.1168
-3.21466
5.20615
-2.80652
5.45045
-3.52437
1.92608
3.20752
5.47132
-2.26379
4.19536
-1.61673
1.73781
-4.00161
-1.54907
-2.98906
5.02968
-3.19774
3.62682
-0.217047
3.84386
-4.0088
0.970886
-0.623429
3.60006
3.75506
4.10523
-3.03135
2.8725
-4.48923
-1.12911
-3.91574
-0.81251
-0.23669
-3.73889
3.97558
6.14994
-6.38663
-5.30641
9.63424
-4.32783
7.74311
-5.42568
-2.31743
-4.27981
-4.39373
3.88937
1.95702
9.70014
0.202095
-5.62777
-4.96314
-4.00349
3.20701
1.98897
-2.08587
3.7213
2.06674
-0.164043
0.628686
1.18812
1.9027
-1.27402
0.164151
1.73855
-1.42066
2.01195
0.721986
-2.07925
0.0899317
-1.3807
3.39719
1.02714
-2.07992
0.805906
1.13404
-3.35716
4.66941
-2.33562
-2.33379
5.80345
1.1844
-3.52002
4.05458
-3.75857
2.29129
-3.18902
-1.22873
-4.98729
-3.41768
-2.42999
4.65396
-3.11354
5.13661
1.13352
-4.9375
6.07101
-3.48476
1.70918
-3.00949
3.73148
-1.0303
-1.97919
2.6965
2.59953
-2.79646
0.032006
-0.0999632
2.28666
-2.38662
-0.524791
-2.57162
-4.54708
4.9149
-2.14945
4.58757
2.12179
-1.9208
6.50837
1.81276
-3.73356
-3.26232
-3.71481
-1.38071
3.15971
-1.39488
-4.88492
-6.56466
5.12801
-0.687709
-6.93111
9.55587
-2.62476
-5.1814
1.92147
4.89784
-8.11624
1.63265
-3.79119
5.76468
5.61972
4.93201
-11.6803
1.42002
-5.72904
2.90595
-8.63499
6.60922
-3.93737
8.53382
-11.1064
7.94692
-9.72435
6.11638
-2.51862
5.62998
-4.46986
2.91617
-6.97114
-5.24204
6.91707
-3.81017
7.64166
-4.273
11.9147
-6.87572
7.01899
4.89566
-1.46964
-5.84785
-6.86249
5.39286
0.156502
5.91575
4.95476
-2.88138
4.58866
2.25513
-4.67167
-2.088
-6.53804
1.86636
-3.37506
-1.90501
3.77137
3.21986
3.757
1.29614
-3.27645
6.84268
-7.61109
-2.1218
-3.59278
6.79602
-1.40317
4.13618
-7.72896
-2.25576
4.80229
-0.587807
-4.21449
1.95787
-4.92922
1.35366
-6.28289
5.27012
-5.48948
2.1645
-9.93341
-5.1343
-5.01081
-2.22199
-5.11694
-7.63027
5.40828
-1.89365
5.37093
-8.65019
8.06238
-3.44198
8.85025
-5.29266
-1.10762
5.72633
1.28545
10.1357
0.179438
-4.5985
-1.80802
3.90355
-2.09553
1.399
-3.55945
0.344095
2.49842
3.30503
-6.45711
-0.105521
-4.70402
-3.91323
7.9978
5.72101
11.871
1.17095
9.23476
-1.23696
10.4057
4.10568
4.35093
-2.94233
4.72136
1.03325
4.48272
-0.839195
2.76527
1.84947
1.88841
0.786081
2.29215
1.46291
3.26304
0.194395
-2.10783
4.65736
-8.66085
-0.970416
-8.0839
1.12733
5.7501
-4.62277
3.11586
-1.12689
1.02033
0.24294
-1.81388
1.57094
-2.72992
-1.97792
-0.239368
-1.52091
2.32681
1.87628
-2.08744
-0.642479
0.270545
-3.68822
2.91847
-2.88647
-0.286932
5.78408
-2.73492
0.348299
-1.02574
-2.22332
-2.79566
2.70573
6.24497
0.263407
3.13485
5.17831
3.12158
0.240205
6.90264
-6.93466
-3.36766
-5.51464
1.09458
5.99242
2.1993
7.92774
7.09496
5.69179
-2.03717
-9.64826
6.56015
-1.83879
5.42125
-1.20676
-5.07612
4.90753
2.31124
-5.61042
0.120946
-4.95518
-6.79397
-0.420297
8.48268
-9.71541
8.60779
5.64666
1.74514
-4.34279
-0.668017
4.15522
0.195715
10.6014
-1.13842
-6.88778
8.0262
-4.61168
3.64127
0.937716
2.78358
2.50865
1.38176
-5.50603
-10.1288
-1.76278
-1.59438
-4.09657
0.360571
-2.23686
6.27432
-2.63305
3.95688
5.39315
6.41348
-2.15184
-4.2348
6.47967
-2.52278
3.8907
)
;

boundaryField
{
    wall-4
    {
        type            calculated;
        value           uniform 0;
    }
    velocity-inlet-5
    {
        type            calculated;
        value           uniform -3.75095;
    }
    velocity-inlet-6
    {
        type            calculated;
        value           uniform -5.62643;
    }
    pressure-outlet-7
    {
        type            calculated;
        value           nonuniform List<scalar> 8(6.13562 5.95185 6.58219 6.8275 6.74459 6.77898 6.73125 6.76135);
    }
    wall-8
    {
        type            calculated;
        value           uniform 0;
    }
    frontAndBackPlanes
    {
        type            empty;
        value           nonuniform 0();
    }
}


// ************************************************************************* //
