/*--------------------------------*- C++ -*----------------------------------*\
| =========                 |                                                 |
| \\      /  F ield         | OpenFOAM: The Open Source CFD Toolbox           |
|  \\    /   O peration     | Version:  4.0                                   |
|   \\  /    A nd           | Web:      www.OpenFOAM.org                      |
|    \\/     M anipulation  |                                                 |
\*---------------------------------------------------------------------------*/
FoamFile
{
    version     2.0;
    format      ascii;
    class       volVectorField;
    location    "16";
    object      U;
}
// * * * * * * * * * * * * * * * * * * * * * * * * * * * * * * * * * * * * * //

dimensions      [0 1 -1 0 0 0 0];

internalField   nonuniform List<vector> 
918
(
(0.985181 -0.000476477 0)
(0.0050008 2.96626 0)
(-0.00626374 1.62605 0)
(0.979733 0.00210068 0)
(-0.00202884 1.58511 3.39349e-21)
(-0.00702985 2.94878 -1.86193e-18)
(0.848704 1.20162 7.35903e-19)
(0.474103 0.222501 -9.03835e-21)
(0.999913 -0.00031449 0)
(-0.00751572 0.988123 0)
(-0.000928802 1.3092 0)
(0.805425 -0.00714198 0)
(0.0111049 2.93032 0)
(0.00171745 2.79438 0)
(-0.0177804 3.16817 1.09227e-18)
(-0.00608543 1.49934 -1.25409e-20)
(0.57835 0.10164 5.64811e-19)
(0.171376 1.1596 6.64244e-19)
(0.963751 0.00515739 0)
(-0.00346261 1.42802 0)
(0.158844 0.266147 -4.78397e-19)
(1.0017 -0.00508105 0)
(1.00026 -0.00976045 0)
(0.97573 -0.00650984 0)
(0.722664 -0.0267595 0)
(0.018295 2.62974 0)
(-0.0151389 2.91016 6.42668e-19)
(-0.0158487 1.65173 0)
(-0.0157313 1.75848 0)
(-0.0149454 1.64787 0)
(-0.00301021 1.81941 0)
(-0.002045 1.60655 -2.68532e-21)
(-0.00488502 1.50596 0)
(-0.0206262 2.98758 -6.50886e-23)
(-0.0167063 3.00531 1.44733e-18)
(0.00210705 3.00021 0)
(0.864741 -0.00733679 0)
(0.386333 0.925794 -2.737e-20)
(0.842788 1.21314 -1.03746e-18)
(0.993205 1.06034 9.72507e-19)
(0.707126 1.30252 -1.72466e-19)
(0.703451 1.28406 9.74557e-19)
(0.500492 0.292194 8.81891e-21)
(0.492097 0.196515 0)
(1.18414 0.572309 0)
(0.471014 0.314406 4.14747e-20)
(0.431253 0.215815 -4.3039e-20)
(0.920171 -0.00692587 0)
(1.00039 7.87548e-05 0)
(0.999924 0.000343076 0)
(1.0035 -0.00779242 0)
(1.00093 -0.00106425 0)
(1.00016 -7.37512e-06 0)
(0.0689367 1.58007 -3.64031e-19)
(-0.0116821 1.0436 0)
(0.0251504 0.906406 0)
(-0.0426864 1.13264 0)
(-0.0282292 1.07178 0)
(-0.00646642 1.57957 0)
(-0.00699946 1.46499 0)
(-0.00849615 1.29359 0)
(-0.00785272 1.50079 0)
(-0.00533692 1.32358 0)
(0.882743 -0.000550593 0)
(0.889881 0.00951293 0)
(0.818252 -0.000517638 0)
(0.882658 0.0142335 0)
(0.790248 -0.00834656 0)
(0.0147058 3.00039 6.81468e-19)
(0.0115341 3.00787 0)
(0.00614139 3.00286 0)
(0.0135536 2.99732 7.5964e-24)
(0.00799915 2.95846 -1.01283e-18)
(0.0145008 2.98207 0)
(0.0107801 2.90364 0)
(0.0254148 2.93019 1.35702e-24)
(0.00400649 2.82487 0)
(0.0318396 2.9152 0)
(-0.00698154 2.74432 0)
(0.309655 3.5665 0)
(-0.132657 3.64832 0)
(0.140144 3.25871 -1.01652e-18)
(-0.011353 2.99188 0)
(-0.012786 1.79806 0)
(-0.00458117 1.63784 1.23716e-20)
(-0.00591871 1.51508 -2.07805e-20)
(0.639509 0.164535 -1.94792e-19)
(0.596573 0.0619069 -1.89524e-19)
(0.605297 0.19446 -5.82903e-19)
(0.556048 0.126935 -3.88801e-19)
(0.248001 0.956798 0)
(0.263409 1.28664 -6.48409e-19)
(0.330658 1.27234 1.06621e-18)
(0.988049 0.008437 0)
(0.943627 0.00613783 0)
(1.00032 0.000560724 0)
(1.00285 0.00930461 0)
(1.00286 0.0083861 -1.08013e-18)
(0.992037 0.00979238 8.15544e-19)
(-0.0157503 1.55609 0)
(-0.00853738 1.41308 0)
(-0.0227838 1.65857 0)
(-0.018641 1.5924 0)
(-0.00217565 1.45905 0)
(0.232728 0.282738 1.47282e-19)
(0.280106 0.263247 0)
(0.993567 -0.00829346 0)
(0.95436 -0.00675713 0)
(0.856472 0.0181273 0)
(0.823365 0.0331708 0)
(0.768743 -0.017748 0)
(1.0144 -0.00573474 0)
(0.769274 0.0483178 0)
(0.637178 -0.015886 7.55766e-19)
(-0.035156 2.86711 3.22106e-19)
(0.0439266 2.90773 0)
(0.057204 2.88271 0)
(-0.00538815 2.69585 0)
(-0.013186 2.98522 5.90166e-19)
(-0.0183881 2.89551 0)
(-0.0153963 2.98815 -1.86827e-18)
(-0.0134558 2.92522 6.45396e-19)
(-0.0129508 1.81225 0)
(-0.0102191 1.80753 0)
(-0.0019788 1.63628 -2.41997e-22)
(-0.00274676 1.6064 0)
(-0.005587 1.5003 0)
(0.929864 -0.00473462 0)
(0.854588 -0.00559298 0)
(0.858718 0.00958472 0)
(0.942714 -0.00532478 0)
(0.883407 -0.00677557 0)
(0.500815 1.12168 2.39132e-20)
(0.55416 1.17918 0)
(0.343018 0.858087 4.60661e-21)
(0.287783 0.719741 0)
(0.955518 1.09172 -2.80079e-19)
(1.06894 0.897143 5.72061e-19)
(0.43245 1.36304 0)
(0.554487 1.36536 0)
(0.5499 1.30926 0)
(0.0955214 0.125932 -1.15483e-19)
(0.531422 0.269261 0)
(0.515925 0.171336 1.12016e-19)
(1.04015 0.946677 0)
(1.10823 0.791576 0)
(1.13473 0.736949 -4.97464e-19)
(1.16249 0.630196 0)
(1.21334 0.411434 5.99113e-20)
(0.955136 -0.00767079 0)
(0.962243 -0.00926536 0)
(0.902396 -0.00819406 0)
(0.984167 -0.00899467 0)
(0.975051 -0.00915838 0)
(0.936836 -0.00630404 0)
(1.00004 0.00225161 0)
(1.00092 0.00151337 0)
(0.999887 0.000836995 0)
(0.0681856 1.80364 2.14624e-19)
(0.0745167 1.53504 0)
(0.0387562 1.79891 2.73333e-19)
(0.0328696 1.58221 -2.30819e-19)
(0.0977493 1.15375 -5.50016e-19)
(0.0296442 1.04352 0)
(0.121619 0.993744 0)
(-0.0451874 1.25498 0)
(-0.0234632 1.18211 0)
(-0.00319129 1.72515 -9.43518e-22)
(0.000430745 1.608 0)
(-0.00706838 1.70462 -4.29002e-20)
(-0.00872557 1.56433 8.2641e-20)
(-0.0295785 1.3603 0)
(-0.017527 1.42727 0)
(-0.0135576 1.24872 0)
(-0.0119493 1.52241 0)
(-0.00817338 1.34382 0)
(0.958783 0.0141183 0)
(0.901875 0.00268659 0)
(0.94059 0.00943877 0)
(0.87065 0.00102445 0)
(0.819638 -0.00238991 0)
(0.909129 0.00200157 0)
(0.902515 0.00477521 0)
(0.818354 -0.00489014 0)
(0.00597557 3.06492 -5.9824e-21)
(0.0163363 3.05799 0)
(0.0147199 2.96915 0)
(0.00857833 2.87636 0)
(0.926509 3.98434 0)
(1.24181 3.31322 1.01377e-18)
(0.0714939 3.08431 0)
(-0.0261246 2.91226 0)
(-0.0140023 1.7948 0)
(-0.0142992 1.79501 0)
(-0.0132048 1.79468 0)
(-0.00782859 1.80777 4.16375e-21)
(-0.0121023 1.80443 0)
(-0.00934719 1.80261 0)
(-0.000367666 1.52549 9.74608e-22)
(-0.000722029 1.66507 2.3294e-20)
(-0.0036347 1.65353 2.12338e-20)
(-0.00289333 1.51765 0)
(0.666303 0.118058 2.85474e-19)
(0.610342 0.0273302 -2.78263e-19)
(0.196999 1.48639 0)
(0.29461 0.722454 -2.26938e-19)
(0.106337 1.5927 -7.70639e-19)
(0.183358 1.17756 7.67614e-19)
(0.902992 0.00947474 0)
(0.968504 0.011985 0)
(0.97548 0.010915 0)
(0.925894 0.00770425 0)
(-0.015728 1.53534 0)
(-0.0166207 1.54381 0)
(-0.00906356 1.37451 0)
(0.427991 0.327599 3.80307e-19)
(0.357414 0.307636 -4.62991e-19)
(0.371574 0.238799 0)
(1.13216 0.0828376 -3.28148e-21)
(1.11693 0.0377006 0)
(1.04807 0.0338716 0)
(0.96035 0.0058025 0)
(0.678758 0.0847463 0)
(0.707781 0.0623974 -1.21677e-18)
(0.616872 0.0123318 4.64878e-19)
(0.0100219 2.98273 4.14859e-19)
(-0.0318422 2.86832 4.91354e-20)
(0.00381501 3.05026 -1.29328e-20)
(0.0199467 3.0435 4.65117e-19)
(-0.0150243 2.99656 2.1466e-20)
(-0.0129772 2.94941 -8.69186e-23)
(-0.0172933 3.01201 -4.07268e-19)
(0.0147879 3.02408 2.94608e-19)
(0.00729054 3.03678 -4.60164e-19)
(0.935587 0.00816103 0)
(0.932153 0.00272254 0)
(0.856045 -0.000585837 0)
(0.956314 0.0131086 0)
(0.941823 0.0133063 0)
(0.881097 0.00806658 0)
(0.914764 0.00701459 0)
(0.923137 0.0132599 0)
(0.832954 0.00490045 0)
(0.712925 1.40929 3.23474e-19)
(0.749414 1.52083 0)
(0.218675 0.363878 2.25955e-20)
(0.170178 0.550023 1.78655e-19)
(0.253349 0.669958 -1.05731e-19)
(0.217465 0.556 1.9408e-19)
(0.281726 0.670957 6.87122e-19)
(0.111071 0.16064 2.15994e-19)
(0.583674 0.223666 4.18789e-19)
(0.555413 0.246437 1.03232e-19)
(0.536221 0.155704 2.10665e-19)
(1.20112 0.46732 2.94125e-19)
(1.21641 0.259172 3.08569e-19)
(0.0387607 1.77209 1.12743e-19)
(0.0312638 1.596 0)
(1.0018 0.0259659 0)
(0.970806 0.0169302 0)
(0.926161 -0.000887913 0)
(0.011014 3.0747 0)
(0.0201099 2.94419 7.96957e-19)
(0.0165526 2.95647 0)
(0.00609245 2.85064 -7.90473e-19)
(0.00613619 3.0921 1.88874e-19)
(0.00720348 3.08226 0)
(0.783957 1.82585 -2.38527e-19)
(1.24859 2.50853 6.5588e-19)
(0.766957 1.96699 -1.49039e-18)
(0.021234 2.98525 -2.9913e-19)
(0.0372242 3.00839 0)
(-0.0318333 2.88315 0)
(-0.00353117 1.66965 -5.00804e-21)
(-0.000913697 1.66899 -5.24135e-20)
(-0.000837505 1.53851 -6.87362e-21)
(0.252597 1.3338 7.06877e-19)
(0.263264 0.476343 -4.88435e-19)
(0.0631375 1.77174 4.84473e-19)
(0.0992629 1.69515 -6.16797e-19)
(0.109144 1.39904 9.61192e-20)
(0.00617221 3.11814 -9.91427e-19)
(0.0129588 3.11884 1.08106e-18)
(-0.00873855 2.98073 5.12578e-19)
(-0.00325779 2.97778 -4.51966e-19)
(-0.0217086 2.88198 -5.2205e-19)
(0.00862412 3.09892 -1.38167e-18)
(0.00185756 3.10579 1.38349e-18)
(0.208033 0.584177 0)
(0.149367 0.548684 -3.49001e-19)
(0.141625 0.18867 1.54116e-19)
(0.316978 0.800768 6.45052e-19)
(0.174525 0.210971 -9.84513e-19)
(1.21298 0.17053 -5.59555e-20)
(1.21524 0.31102 0)
(1.2002 0.118472 1.21195e-19)
(0.00575726 1.7549 -1.13741e-21)
(0.0275665 1.77484 0)
(0.0129045 1.60516 0)
(0.307534 1.20053 -2.53611e-19)
(0.355893 1.02007 -5.41444e-19)
(0.186562 0.311345 9.17982e-19)
(1.00583 -0.0110352 0)
(1.00771 -0.00776667 1.96975e-19)
(-0.0134888 1.80112 0)
(-0.0226508 1.80988 0)
(1.00232 0.00363674 1.90187e-21)
(1.00351 0.00937915 4.05041e-19)
(-0.00750661 1.81127 -5.47416e-21)
(-0.00579605 1.81013 0)
(0.0397808 3.18463 1.02986e-19)
(0.398859 3.50423 0)
(1.10162 0.644914 6.1642e-20)
(1.01167 0.0120809 -2.43186e-21)
(1.02086 -0.0113701 0)
(1.00172 0.000177826 7.35501e-24)
(-0.128817 1.19824 0)
(-0.100942 2.46228 0)
(-0.0598488 1.71421 0)
(-0.0548182 1.93436 6.25507e-20)
(-0.0397485 1.86526 3.73797e-20)
(1.00379 0.00920689 2.35746e-21)
(1.0446 0.0154866 0)
(1.06992 0.0285469 0)
(-0.015603 1.79636 0)
(-0.0104017 1.82405 0)
(-0.0260957 1.79279 0)
(0.308948 1.30498 -4.71191e-19)
(1.01121 -0.00970625 0)
(1.00948 -0.0155099 0)
(1.00227 0.000478355 2.48484e-19)
(1.00571 -0.00487523 -2.96833e-19)
(1.00106 -0.000980861 0)
(-0.0176168 1.79453 0)
(-0.0155466 1.79516 0)
(-0.0148854 1.79606 0)
(-0.0249575 1.79458 0)
(-0.0210872 1.79265 0)
(-0.0245591 1.79538 0)
(1.02515 -0.00849793 0)
(1.02114 0.018573 -1.01198e-21)
(0.796385 1.2638 5.28026e-19)
(1.00305 0.000313267 -2.52115e-19)
(1.00328 0.00575281 3.01345e-19)
(1.00123 0.00204753 0)
(1.01181 0.0103459 2.4458e-19)
(1.00782 0.00812261 -3.03383e-19)
(1.00872 0.0142677 0)
(-0.0102963 1.82394 0)
(-0.00838402 1.8185 1.0918e-20)
(-0.0085639 1.81733 -7.52442e-21)
(1.18225 0.252239 -6.17181e-20)
(1.12165 0.0832548 0)
(0.0570027 3.07935 -5.09085e-19)
(0.0690012 2.8513 -4.12779e-20)
(0.147993 3.20043 7.77174e-19)
(0.142514 3.22865 3.47128e-21)
(0.140295 3.24516 0)
(0.021729 3.13881 1.09524e-19)
(0.0811786 3.16353 4.9699e-19)
(0.0743638 3.19083 -2.12122e-19)
(0.0264691 3.12824 0)
(0.695806 0.325439 0)
(0.625517 0.392252 0)
(1.08048 0.674753 -2.40118e-19)
(1.07483 0.808352 3.77035e-19)
(1.13855 0.560996 0)
(1.17135 0.511354 0)
(1.01558 0.0129032 -4.54115e-19)
(1.0135 0.0146982 5.66632e-19)
(1.02428 -0.0125318 0)
(1.01834 -0.0200559 0)
(1.0068 0.00310775 0)
(1.00999 0.00395598 0)
(1.00424 0.00206949 0)
(1.00956 0.00662241 0)
(1.00747 0.00536868 0)
(1.0055 0.00496874 0)
(-0.140873 1.23893 0)
(-0.147161 1.25147 0)
(-0.0536925 1.16708 0)
(0.0680896 1.18635 0)
(-0.0824642 2.56753 0)
(0.0426294 2.59079 -2.51041e-19)
(-0.11902 2.46604 0)
(-0.0913404 2.35705 8.09354e-20)
(-0.0443777 2.08439 -1.19443e-19)
(-0.049108 1.72302 0)
(-0.0315583 1.73855 0)
(-0.0791765 1.68365 0)
(-0.0645972 1.6316 0)
(-0.122981 1.86353 -2.86277e-20)
(-0.0513179 1.88378 4.39184e-20)
(-0.0521048 1.92811 5.78216e-20)
(-0.0435689 1.90712 0)
(-0.0370476 1.86397 -8.50616e-20)
(-0.0188198 1.85086 -4.22779e-20)
(-0.112055 1.85095 2.2813e-20)
(-0.0738503 1.85979 -5.85754e-20)
(-0.0793227 1.89036 -7.63971e-20)
(1.01208 0.0192067 4.50336e-19)
(1.01154 0.00446019 -5.56672e-19)
(1.00547 0.0192491 -4.66384e-19)
(0.99307 0.0143547 5.94046e-19)
(1.04312 0.0202132 0)
(1.0364 0.00855303 0)
(1.06394 0.0396389 0)
(1.05143 0.0237285 0)
(1.055 0.0117485 0)
(1.10511 0.0763702 0)
(1.08028 0.0487688 0)
(1.08963 0.0362101 0)
(-0.0108939 1.81307 -1.36912e-21)
(-0.0160928 1.80191 0)
(-0.0125678 1.80606 0)
(-0.0102972 1.82874 1.26951e-20)
(-0.00875191 1.83013 -5.65893e-22)
(-0.0213893 1.79818 1.23808e-20)
(-0.0216134 1.79704 -1.25042e-20)
(-0.0254232 1.79726 0)
(-0.0227895 1.79769 0)
(-0.0218651 1.79769 0)
(-0.0261593 1.79139 0)
(-0.0234185 1.78153 0)
(0.450084 1.38585 8.92623e-19)
(0.404164 1.41724 3.28057e-19)
(0.628733 2.4265 -1.60885e-19)
(0.416659 2.57194 4.02189e-19)
(0.537653 2.12882 -1.10473e-19)
(1.02116 -0.0079968 0)
(1.0156 -0.00937391 0)
(1.0163 -0.0147951 0)
(1.00776 -0.000759071 0)
(1.00446 -0.00128099 0)
(1.00726 -0.00481494 0)
(1.00993 -0.00378783 0)
(1.01385 -0.00433085 0)
(1.02249 0.0172135 4.38044e-19)
(1.01534 0.0212485 -5.51624e-19)
(1.02383 0.0158254 -4.36524e-19)
(1.01977 0.0117633 5.4631e-19)
(0.765218 1.29789 0)
(0.690186 1.35648 6.2578e-19)
(0.866814 1.19428 3.63194e-19)
(0.903906 1.16942 -4.82712e-19)
(1.14414 2.61617 -5.34313e-19)
(0.833706 0.105381 2.92781e-19)
(1.12313 0.0963788 0)
(1.16561 0.168855 5.52836e-20)
(1.1592 0.152955 2.4142e-21)
(0.973089 0.12335 0)
(0.151847 2.97203 1.05542e-19)
(0.129303 2.87814 -6.43279e-19)
(0.0445987 2.34734 4.75287e-19)
(0.113139 0.122407 -1.97071e-19)
(0.343215 3.43124 -4.49106e-19)
(0.198949 3.32383 0)
(0.239088 3.36852 5.84882e-19)
(0.256512 3.04457 -6.79573e-19)
(0.349636 3.20162 0)
(0.00746239 3.12051 2.61998e-20)
(0.0190482 3.12936 -3.34376e-19)
(0.0165445 3.12517 4.92165e-19)
(0.0383319 3.13997 0)
(0.036892 3.15216 0)
(1.2139 2.61401 0)
(0.499376 0.842993 -2.28062e-19)
(1.01538 0.984723 -2.00924e-19)
(0.959163 1.04746 0)
(0.797581 0.954269 5.49359e-20)
(1.03577 0.869604 3.13872e-20)
(0.405092 0.483014 -5.32546e-19)
(0.720673 0.327006 -2.2824e-20)
(0.704048 0.28888 2.22418e-19)
(0.626973 0.425484 1.78639e-20)
(0.570649 0.414466 -7.33975e-19)
(0.704697 0.349209 0)
(0.717787 0.424888 3.71969e-19)
(0.721356 0.41724 0)
(0.671006 0.400872 0)
(0.667813 0.33191 0)
(0.735898 0.59804 1.35563e-19)
(1.1799 0.269297 3.38913e-20)
(1.18017 0.406066 0)
(1.18821 0.361861 0)
(0.764097 0.217834 3.32855e-19)
(0.784157 0.51942 -1.86007e-19)
(0.706426 0.502438 3.01601e-19)
(0.904892 0.397292 -2.84461e-19)
(1.01993 0.0160404 2.97193e-19)
(1.01741 0.0141729 -3.06529e-19)
(1.01372 0.0167038 0)
(1.02404 -0.0124613 0)
(1.02323 -0.0167489 -2.71633e-19)
(1.01646 -0.0215861 2.68454e-19)
(1.03448 0.00612434 0)
(1.02757 0.0149201 0)
(1.01134 0.00418036 0)
(1.01507 0.00823074 0)
(1.0166 0.00384357 0)
(1.01339 0.00134474 0)
(-0.1765 1.35752 0)
(-0.159249 1.39132 0)
(-0.0722483 1.08599 3.78358e-19)
(0.312817 1.28558 2.91866e-19)
(0.148653 1.16494 6.37881e-19)
(0.224442 1.21812 -1.01813e-18)
(0.157901 1.18513 0)
(-0.1177 1.95299 6.77092e-19)
(-0.253734 1.84193 0)
(0.527322 2.23392 1.64702e-19)
(0.424626 2.46421 2.20869e-19)
(0.127678 1.68197 -5.95383e-19)
(0.391228 1.1757 2.93967e-19)
(0.221117 1.15675 -2.31408e-19)
(0.498734 1.23935 6.12874e-19)
(0.379927 1.76929 0)
(0.484105 1.77631 -4.77428e-19)
(-0.235465 2.05416 2.03346e-21)
(-0.0679886 2.15448 0)
(-0.25135 2.23029 4.65278e-21)
(-0.227571 2.13845 0)
(-0.0852595 2.31996 -9.15813e-20)
(-0.0477218 2.19176 0)
(-0.123327 1.77305 -1.80361e-20)
(-0.165905 1.82218 0)
(-0.15474 1.70138 0)
(-0.128895 1.72495 2.03484e-20)
(-0.0622342 1.96456 -1.41537e-20)
(-0.0466543 2.05594 1.32185e-19)
(-0.0426072 2.01011 8.97102e-22)
(-0.0663512 1.8264 2.50968e-20)
(-0.0830535 1.81817 1.19958e-20)
(-0.0265096 1.75466 0)
(-0.020762 1.76042 0)
(-0.236896 1.9035 -4.89538e-21)
(-0.216379 1.73081 -2.06313e-20)
(-0.197237 1.82743 2.20009e-20)
(-0.317236 1.89324 0)
(-0.0176416 1.81822 -4.77038e-20)
(-0.0167759 1.82734 2.27514e-20)
(-0.0171734 1.82797 -6.92196e-21)
(-0.0531538 1.82017 -3.00318e-20)
(-0.0277119 1.84552 -1.12452e-20)
(-0.0370389 1.85362 6.0157e-20)
(1.02307 0.00878034 -2.92495e-19)
(1.02002 0.00881295 2.96034e-19)
(1.01719 0.00157895 0)
(1.00002 0.045052 4.21343e-19)
(0.993742 0.0334492 -4.94149e-19)
(0.967319 0.0244376 5.70295e-19)
(0.995474 0.080008 -5.54757e-20)
(1.02622 -0.00235572 0)
(1.03252 0.0111058 2.4606e-19)
(1.02667 0.000770766 -2.43976e-19)
(1.04048 0.0387041 -1.3614e-20)
(1.04448 0.0274162 1.20239e-19)
(1.03759 0.0507808 0)
(1.03123 0.0407792 -4.5161e-20)
(1.02579 0.0257726 0)
(1.02229 0.0216831 0)
(1.03743 0.00781152 0)
(1.03265 0.00846852 0)
(1.0328 0.0249777 9.39775e-20)
(1.03527 0.0181302 -2.10332e-19)
(1.03413 0.0294802 -9.48847e-20)
(1.03333 0.0290101 -1.10159e-19)
(1.0338 0.0571868 1.98844e-19)
(1.0659 0.0521298 0)
(1.06191 0.0920828 0)
(-0.017974 1.81861 -1.82622e-20)
(-0.0171422 1.80629 -1.60464e-21)
(-0.0191958 1.80701 0)
(-0.0128475 1.81992 1.94403e-20)
(-0.0114225 1.81489 2.86231e-21)
(-0.0117823 1.81878 -2.96374e-21)
(-0.0139829 1.84716 3.60521e-20)
(-0.0163406 1.83504 -2.48167e-21)
(-0.018946 1.83733 1.24879e-20)
(-0.00778389 1.83609 -1.86659e-20)
(-0.00851198 1.83827 2.30583e-20)
(-0.0255523 1.79994 4.04708e-22)
(-0.0238456 1.80206 2.1313e-20)
(0.524681 1.32327 -4.41239e-19)
(0.535585 1.36422 -4.80055e-19)
(0.649697 1.39214 -6.05047e-19)
(0.523308 1.43587 -3.25652e-19)
(0.538161 1.43323 0)
(0.614192 2.40074 1.313e-19)
(0.708135 2.35529 2.40494e-19)
(0.425086 2.54301 1.01682e-19)
(0.418196 2.62879 -1.50058e-19)
(0.554121 2.56702 2.8207e-19)
(0.527581 2.46311 0)
(0.533854 2.46861 -3.62816e-19)
(0.113696 2.63494 6.78011e-19)
(0.295204 2.63468 -2.77577e-20)
(0.220015 2.6302 -9.53251e-19)
(0.921394 2.35498 1.90444e-19)
(0.825501 2.3298 0)
(1.01079 -4.5098e-05 9.95603e-21)
(1.01449 -0.00521472 -8.01836e-21)
(1.01624 -0.00379034 -1.4516e-19)
(1.01374 -0.00198005 1.46056e-19)
(1.01302 0.000779289 0)
(0.643974 1.25707 0)
(0.644794 1.15248 0)
(0.740005 1.08049 0)
(0.635704 1.10752 0)
(1.17522 2.63628 4.86886e-20)
(1.05082 2.36338 0)
(0.825767 2.28435 -2.22601e-21)
(0.807715 2.48528 0)
(0.895074 2.57725 -4.94487e-21)
(0.926743 2.53933 3.31391e-21)
(0.838345 0.132998 0)
(0.807818 0.144417 8.42964e-20)
(0.916126 0.124457 4.30532e-19)
(0.862076 0.118349 -1.73376e-19)
(0.85627 0.073727 -5.18865e-19)
(1.02444 0.210972 -2.49346e-19)
(0.957575 0.275429 -1.51239e-20)
(0.884472 0.271553 3.89553e-19)
(0.962175 0.206591 2.92437e-19)
(0.932711 0.159999 -5.40137e-19)
(0.904726 0.175111 6.97178e-20)
(0.919804 0.239959 -1.37572e-19)
(0.901713 0.194181 0)
(0.96859 0.160513 2.58246e-19)
(1.00055 0.159321 0)
(0.998818 0.191879 0)
(1.0579 0.100794 8.4437e-20)
(1.02004 0.148034 -1.34879e-20)
(1.01662 0.211774 -4.63403e-20)
(1.04902 0.178982 0)
(1.01534 0.0240494 2.23901e-19)
(1.02681 0.0431382 2.64302e-19)
(1.023 0.0275038 -2.2181e-19)
(1.01879 0.0478554 -1.78197e-19)
(1.00325 0.0486175 -2.97115e-19)
(0.976097 0.125497 0)
(0.984034 0.0773819 0)
(0.969147 0.0467122 -2.06959e-19)
(0.93263 0.0557514 8.6431e-20)
(1.00081 0.0796072 2.52958e-19)
(1.02246 0.10138 -2.56694e-19)
(1.02856 0.122354 2.33772e-19)
(0.992155 0.121875 0)
(1.03346 0.0906084 0)
(1.01988 0.0774293 -1.07712e-19)
(1.01713 0.0792869 -2.01933e-19)
(0.591141 1.06519 -1.03682e-19)
(0.643742 1.44199 2.07008e-19)
(1.16407 2.76517 1.09728e-19)
(1.22423 3.09573 -7.07137e-20)
(1.24229 2.73573 5.48536e-19)
(1.27641 2.71582 -3.35166e-19)
(1.19869 2.34769 -5.77371e-21)
(1.21054 3.00091 1.96947e-19)
(1.22683 2.96872 -2.22572e-19)
(1.2136 3.24781 -2.67614e-19)
(1.37477 2.97768 3.70516e-19)
(1.36778 2.893 0)
(0.501284 0.852184 -1.22194e-20)
(0.161487 1.30049 3.56863e-19)
(0.523509 0.546471 3.53458e-19)
(0.351921 0.318648 3.84408e-19)
(0.566143 0.446607 4.09767e-19)
(0.543991 0.504358 -6.48809e-19)
(0.543975 0.524627 5.31438e-19)
(0.517313 0.483692 -2.12203e-19)
(0.481405 0.427457 4.92579e-19)
(0.771201 0.260115 -1.86169e-19)
(0.739403 0.297255 0)
(0.732394 0.247541 1.11927e-20)
(0.69975 0.517948 1.91827e-19)
(0.684214 0.485123 -7.06605e-19)
(0.61122 0.508094 1.99826e-20)
(0.633522 0.480485 0)
(0.626538 0.737567 1.49023e-19)
(0.776756 0.761221 5.56008e-20)
(0.709912 0.850754 -7.36423e-20)
(0.820376 0.790509 -1.93882e-20)
(0.865458 0.833396 1.37558e-20)
(0.872908 0.836627 -1.40869e-20)
(0.780495 0.629457 -2.31062e-19)
(0.86665 0.684851 1.80161e-20)
(0.930187 0.697212 0)
(0.919711 0.673184 -1.80945e-20)
(0.980904 0.30956 6.35437e-20)
(1.07539 0.278857 1.10139e-20)
(1.00915 0.255131 1.01848e-19)
(0.961801 0.337612 -1.45823e-19)
(0.997707 0.398655 0)
(1.05207 0.394187 0)
(0.883749 0.328693 3.12332e-21)
(0.828022 0.272486 0)
(0.833233 0.269966 2.00379e-19)
(0.883948 0.275691 -8.19372e-21)
(0.893656 0.398272 7.78121e-19)
(0.83974 0.459251 2.00266e-19)
(0.851602 0.424564 -2.49768e-19)
(0.798159 0.413543 2.67663e-19)
(0.7833 0.409708 1.83565e-19)
(0.778596 0.401387 -1.79354e-19)
(1.02526 -0.0127569 2.37903e-19)
(1.0221 -0.00773882 0)
(1.01952 -0.00592454 1.56581e-19)
(1.02402 -0.0106916 -3.54083e-19)
(1.02907 -0.000771624 1.71305e-19)
(1.02429 0.0111363 -3.62815e-19)
(1.02436 0.0143808 0)
(1.02184 0.0130871 -7.59014e-20)
(1.01761 0.0060124 1.88519e-19)
(1.01623 0.00985068 -9.58707e-20)
(1.02038 0.0105701 7.14801e-20)
(-0.109441 1.60323 0)
(-0.184474 1.67371 0)
(-0.157059 1.49104 0)
(-0.0982328 1.52582 0)
(-0.331376 1.58247 -5.11752e-19)
(-0.28766 1.40239 1.67244e-19)
(-0.317892 1.85704 1.5227e-19)
(-0.362223 1.62934 -2.26472e-19)
(-0.271802 1.73507 5.52605e-20)
(-0.28673 1.72299 -4.28616e-20)
(-0.304609 1.55523 9.23653e-20)
(-0.287004 1.56069 1.81971e-19)
(-0.238182 1.58589 1.51396e-20)
(-0.234315 1.6419 5.99667e-21)
(-0.264698 2.27225 -8.47951e-22)
(-0.261595 2.38542 0)
(-0.315167 2.2966 -9.46848e-20)
(-0.371791 1.97698 -1.15534e-19)
(0.229791 2.22713 1.0967e-19)
(0.157399 2.62881 0)
(0.203853 2.55395 -5.03205e-20)
(0.303111 2.55385 3.47584e-20)
(0.00138049 2.29154 2.92137e-19)
(-0.154543 2.31137 -1.92304e-19)
(-0.129342 2.57172 0)
(-0.192367 1.92319 -2.40127e-20)
(-0.131143 1.91879 -1.06272e-19)
(-0.148576 1.8901 0)
(-0.139948 2.01299 -3.87213e-21)
(-0.21203 2.01752 2.21348e-20)
(-0.0751702 1.76869 4.37659e-21)
(-0.0480546 1.77325 -6.43764e-20)
(-0.0456225 1.7866 1.82624e-20)
(-0.0759303 1.78905 2.18495e-20)
(-0.106011 1.78507 0)
(-0.0380219 1.78735 0)
(-0.0245015 1.78188 2.27876e-20)
(-0.0288055 1.79331 -7.18431e-21)
(-0.0309634 1.79078 0)
(-0.0230811 1.77157 1.70873e-20)
(-0.0207144 1.77119 -3.39538e-20)
(1.03368 0.0154351 0)
(1.03801 0.0166966 -2.33292e-20)
(1.03913 0.019501 -1.67861e-19)
(1.03714 0.0203721 0)
(1.03671 0.0220037 0)
(1.04131 0.0100001 -5.65578e-21)
(1.03968 0.00862494 2.82442e-19)
(1.0377 0.0105087 3.39416e-19)
(1.03357 0.00944025 0)
(1.02796 0.00683336 0)
(1.03416 0.0166139 1.71322e-19)
(1.02647 0.0106358 0)
(1.0275 0.00857463 0)
(-0.0228134 1.82229 0)
(-0.0249296 1.80243 2.18534e-21)
(-0.0231349 1.81438 1.16014e-20)
(-0.0278491 1.79584 0)
(-0.026545 1.80429 1.45861e-20)
(-0.0264642 1.80105 -6.91117e-21)
(-0.0284082 1.79664 0)
(0.440013 1.67044 0)
(0.540463 1.3426 7.20415e-19)
(0.495881 1.36375 0)
(0.522388 1.36323 -9.22545e-19)
(0.519057 1.3883 0)
(0.534759 1.38064 4.08918e-19)
(1.01902 2.70737 -3.84275e-21)
(0.939663 2.39158 -2.39871e-19)
(0.864679 2.12817 2.93583e-19)
(0.841608 2.32271 1.13079e-19)
(0.831041 2.51121 0)
(0.881878 2.52112 0)
(0.891418 2.34763 0)
(0.895508 2.30535 -4.15985e-19)
(0.718496 2.47614 -7.19234e-20)
(0.798729 2.48375 -2.52893e-20)
(0.791088 2.45988 2.00953e-20)
(0.693544 2.34379 0)
(0.784764 2.33054 0)
(0.750432 2.34221 -2.26512e-19)
(0.76258 2.47557 0)
(0.603422 1.07491 0)
(0.477704 0.924463 -8.90804e-21)
(0.523053 0.955368 -1.38422e-21)
(0.519447 1.04348 0)
(0.512834 0.998038 1.74365e-20)
(0.728759 0.876714 1.49034e-20)
(0.762895 1.00884 0)
(0.732061 0.97104 -6.39514e-20)
(0.608932 1.01336 0)
(0.606039 0.935128 0)
(1.15596 2.79019 5.747e-20)
(1.13936 2.85303 1.34403e-19)
(0.938718 2.38917 -3.00455e-19)
(0.909547 2.36065 4.12209e-20)
(1.11562 2.76097 0)
(1.0621 2.7333 -4.90826e-20)
(1.06898 2.49441 -6.94464e-20)
(0.951577 2.21647 -2.78765e-20)
(0.469338 1.40353 0)
(0.481013 1.04845 9.13982e-20)
(0.549871 1.13282 0)
(0.846202 0.217768 0)
(0.813297 0.16529 0)
(0.773891 0.18375 0)
(0.831589 0.227819 -3.15577e-19)
(0.78193 0.231811 1.95264e-19)
(0.934904 0.053083 -1.74748e-19)
(0.940878 0.101209 0)
(0.926416 0.108481 8.0468e-20)
(0.889413 0.0817056 3.30216e-19)
(0.886069 0.0535625 -2.03404e-19)
(1.16229 3.37274 -9.82939e-19)
(1.20926 3.29241 0)
(1.16255 3.40056 -1.95103e-18)
(0.649017 3.56298 1.67107e-18)
(0.872699 3.13334 3.88283e-19)
(0.479575 0.874902 2.1569e-19)
(0.42491 0.86031 0)
(0.343613 0.56221 -8.06574e-20)
(0.407448 0.690279 3.69467e-19)
(0.519641 0.54084 -1.10313e-19)
(0.501965 0.565374 1.24175e-19)
(0.624261 0.553156 2.6709e-19)
(0.641902 0.564354 0)
(0.599334 0.630491 0)
(0.562316 0.567104 0)
(0.912946 0.580077 -5.0814e-20)
(0.841971 0.514015 -1.93623e-19)
(0.86324 0.551977 9.5122e-20)
(0.909291 0.485193 -1.39984e-19)
(1.00555 0.462722 0)
(1.02296 0.542056 -7.62586e-21)
(0.835545 0.364962 -3.99695e-19)
(0.839233 0.352301 -4.5631e-19)
(0.810341 0.363488 3.13364e-19)
(0.788982 0.341398 -3.55656e-19)
(0.829039 0.297307 -2.6406e-19)
(0.787466 0.303406 3.24826e-19)
(1.03458 -0.000579041 -1.80038e-19)
(1.03718 -0.000452259 3.67388e-19)
(1.02819 -0.0095808 2.23207e-19)
(1.03254 -0.00865033 -2.68154e-19)
(1.03675 0.00758113 0)
(1.03796 0.00792681 -4.44541e-19)
(-0.352776 1.95072 2.8081e-20)
(-0.329602 1.87501 0)
(-0.38952 1.96736 -3.45296e-19)
(-0.379082 1.96018 3.57209e-19)
(-0.349311 1.85366 -2.63894e-19)
(-0.374569 1.87141 0)
(-0.0470316 1.8204 0)
(-0.0365089 1.80025 -7.88559e-21)
(-0.0307773 1.80029 7.15353e-21)
(-0.0291508 1.80539 2.53717e-21)
(-0.0296687 1.82219 -1.51221e-20)
(-0.0347711 1.82366 9.02534e-21)
(0.468688 1.42731 3.55538e-19)
(0.450512 1.42349 -3.80946e-19)
(0.494381 1.34291 4.42413e-19)
(0.472982 1.36824 -2.08576e-20)
(0.630904 1.28408 0)
(0.554768 1.38752 5.22367e-19)
(0.584172 1.36666 -5.20246e-19)
(0.505299 1.31248 -4.18754e-19)
(0.50823 1.26878 0)
(0.539289 1.19261 0)
(0.712455 2.44636 1.03667e-19)
(0.71387 2.458 6.23951e-19)
(0.742977 2.45996 -4.08752e-19)
(0.684373 2.45293 -1.20465e-19)
(0.639671 2.59583 1.02187e-19)
(0.567651 2.58513 -3.12706e-19)
(0.951297 2.36057 -1.59367e-19)
(0.990708 2.39176 0)
(0.876174 2.12029 -2.1197e-19)
(1.03281 2.71722 0)
(1.02711 2.70148 0)
(0.612907 2.29327 2.40405e-19)
(1.04232 3.17659 4.80531e-19)
(0.913571 3.04865 -4.30244e-19)
(0.288692 0.98247 0)
(0.33773 0.849409 -1.46739e-19)
(0.477193 0.790981 -6.63948e-20)
(0.403205 2.0594 0)
(0.470378 2.79718 -2.70702e-19)
(0.432007 2.56677 0)
(0.633219 0.687816 -3.08708e-19)
(0.711717 0.668873 3.99914e-19)
(0.730471 0.613214 -3.91395e-19)
(0.614852 0.645706 -4.62245e-20)
(0.672839 0.603821 -1.90576e-19)
(1.00342 2.78224 -3.65326e-19)
(1.04144 2.83893 2.84766e-19)
(0.647542 2.19797 6.03491e-20)
(0.591317 1.73255 -7.38214e-20)
(0.719545 1.91671 9.30033e-20)
(0.98781 2.45938 -6.71403e-20)
(1.00216 2.46309 -1.66024e-19)
(0.667916 1.88523 -4.72619e-21)
(0.46376 1.33862 -7.2547e-20)
)
;

boundaryField
{
    wall-4
    {
        type            noSlip;
    }
    velocity-inlet-5
    {
        type            fixedValue;
        value           uniform (1 0 0);
    }
    velocity-inlet-6
    {
        type            fixedValue;
        value           uniform (0 3 0);
    }
    pressure-outlet-7
    {
        type            zeroGradient;
    }
    wall-8
    {
        type            noSlip;
    }
    frontAndBackPlanes
    {
        type            empty;
    }
}


// ************************************************************************* //
