/*--------------------------------*- C++ -*----------------------------------*\
| =========                 |                                                 |
| \\      /  F ield         | OpenFOAM: The Open Source CFD Toolbox           |
|  \\    /   O peration     | Version:  4.0                                   |
|   \\  /    A nd           | Web:      www.OpenFOAM.org                      |
|    \\/     M anipulation  |                                                 |
\*---------------------------------------------------------------------------*/
FoamFile
{
    version     2.0;
    format      ascii;
    class       volScalarField;
    location    "26";
    object      p;
}
// * * * * * * * * * * * * * * * * * * * * * * * * * * * * * * * * * * * * * //

dimensions      [0 2 -2 0 0 0 0];

internalField   nonuniform List<scalar> 
918
(
0.23979
0.902817
0.0206958
0.238973
-0.00891037
0.870461
-0.823787
0.413544
0.219605
-0.398587
-0.430413
0.210361
0.731257
0.495906
-1.43839
-0.190944
0.367939
-0.699232
0.218936
-0.0597687
0.465661
0.226107
0.229137
0.219538
0.28367
0.483081
0.61144
0.00938824
0.0135376
0.00121609
-0.00994441
-0.060075
-0.0709766
0.753824
0.804433
0.826983
0.188732
0.0267326
-0.661545
-0.747138
-0.736088
-0.869674
0.406971
0.41165
-0.487047
0.415819
0.42793
0.207334
0.218937
0.219896
0.221023
0.219936
0.221381
0.117791
-0.400259
-0.441237
-0.381963
-0.371127
-0.208582
-0.431302
-0.406999
-0.429958
-0.403575
0.141456
0.20796
0.205359
0.215308
0.223851
0.841589
0.812607
0.838227
0.755184
0.770021
0.708968
0.680769
0.517645
0.538873
0.480718
0.468364
-1.86652
-2.83292
-0.847285
-0.593739
-0.00500316
-0.233199
-0.257416
0.358237
0.360848
0.366521
0.382203
0.763969
-0.686074
-0.845659
0.218693
0.217678
0.225898
0.226247
0.223407
0.221489
-0.0953295
-0.148973
-0.0199617
-0.0408226
-0.0418363
0.450347
0.44594
0.221233
0.217864
0.229537
0.251274
0.242488
-0.0161438
0.288692
0.304766
0.295369
0.466637
0.464415
0.471727
0.585998
0.548333
0.648879
0.672472
0.00696433
0.00413546
-0.180375
-0.0966083
-0.122342
0.184818
0.17694
0.202874
0.191937
0.194295
-0.0559976
-0.190369
0.120135
0.145377
-0.570889
-0.648054
-0.751157
-0.772561
-0.887755
0.271122
0.397013
0.397781
-0.495014
-0.42637
-0.565015
-0.340027
-0.41168
0.19767
0.204668
0.198977
0.214644
0.209388
0.210994
0.223262
0.220332
0.221838
0.178749
0.277864
0.0551798
0.0270594
-0.559695
-0.454782
-0.544177
-0.355481
-0.362284
-0.208707
-0.171536
-0.215218
-0.208561
-0.369807
-0.389299
-0.374332
-0.384843
-0.339652
0.135448
0.125623
0.153873
0.160606
0.200283
0.20116
0.203207
0.202079
0.631055
0.653728
0.661937
0.635428
-3.85853
-6.93165
-0.263306
-0.122134
-0.00366615
0.000456061
-0.000474466
0.00538678
0.00133137
-0.0084247
-0.250161
-0.261385
-0.269483
-0.277492
0.342084
0.34574
0.671647
0.659135
0.639074
0.589121
0.206876
0.20905
0.214525
0.210031
-0.304619
-0.202979
-0.246372
0.424194
0.437185
0.435233
-0.0514635
-0.136163
0.0301946
0.0568489
0.327137
0.311223
0.327447
0.358475
0.392703
0.679062
0.696863
0.697181
0.705133
0.750239
0.763163
0.728861
0.165906
0.174913
0.170512
0.206067
0.203727
0.204643
0.19998
0.201498
0.198547
-0.362807
-0.726625
0.219896
0.237839
0.196729
0.218997
0.351907
0.418287
0.377294
0.387626
0.391288
-0.271639
-0.337618
-0.0274082
-0.0731575
0.0806494
0.114096
0.0950424
0.60218
0.563722
0.613635
0.587019
0.547357
0.573785
-0.766765
-2.01862
-1.27119
0.236967
0.0462337
0.135219
-0.214716
-0.229155
-0.226536
0.634389
0.729166
0.325093
0.50505
0.557277
0.433018
0.465292
0.521519
0.442853
0.479302
0.516326
0.498609
0.242658
0.232687
0.220106
0.477783
0.523399
-0.157171
-0.205281
-0.265288
-0.167521
-0.118921
-0.134644
0.693173
0.583324
0.65988
0.217426
0.218032
-0.00372616
-0.0168638
0.222169
0.22239
-0.0107785
-0.0416099
0.118237
-1.13884
-0.178549
0.210234
0.200836
0.217526
-0.388974
0.0825128
-0.440733
-0.21435
-0.294078
0.207976
0.151116
0.115847
0.001816
-0.188028
-0.123094
-0.517074
0.214917
0.213087
0.217044
0.218158
0.21876
-0.0126414
-0.0195059
-0.00899086
-0.119033
-0.0509218
-0.0541268
0.182736
0.198938
-0.475836
0.217208
0.219371
0.219213
0.212036
0.217944
0.215815
-0.123529
-0.0730269
-0.151617
-0.0604801
0.0547074
0.368954
0.474743
0.334378
0.101483
-0.14509
0.26594
0.333088
0.234268
0.394254
0.385344
0.405438
-0.112961
-0.270572
-0.109456
-0.166296
0.208466
0.206836
0.199182
0.19626
0.212511
0.210635
0.215124
0.211996
0.214869
0.216305
-0.34513
-0.37532
-0.382462
-0.450821
0.0412944
0.305603
-0.0336338
0.0186504
-0.145927
-0.485104
-0.429258
-0.42183
-0.39231
-0.357211
-0.289864
-0.242286
-0.221122
-0.34341
-0.329598
-0.427512
-0.358787
-0.373646
0.202373
0.201386
0.207183
0.213698
0.160252
0.163831
0.131978
0.15036
0.135196
0.0832811
0.115898
0.0918447
-0.00460387
0.00826964
0.00324101
-0.195783
-0.309175
-0.0850807
-0.0320754
-0.043178
-0.0476515
-0.0625758
-0.19744
-0.222053
-0.479293
-0.595875
0.663195
0.608748
-0.211878
0.204005
0.2105
0.207175
0.211982
0.215088
0.21604
0.213793
0.210371
0.199623
0.201622
0.197601
0.19796
-0.411869
-0.554147
-0.381411
-0.441459
-0.187306
0.319957
0.0664847
-0.0041142
-0.00167011
0.217357
0.63462
0.408811
0.410276
0.450889
-0.668827
-0.277329
-0.60029
-0.00603451
-0.186771
0.366621
0.418445
0.441292
0.386161
0.337186
-0.568269
0.220069
-0.357364
-0.315334
-0.119241
-0.21927
0.416816
0.369666
0.37648
0.392366
0.413302
0.371664
0.351212
0.349313
0.388544
0.393796
0.186162
-0.0255368
-0.0830115
-0.112361
0.35494
0.227202
0.281525
0.198095
0.203176
0.206071
0.204558
0.187478
0.194717
0.190369
0.195886
0.198883
0.208495
0.209059
0.204024
0.206539
-0.347094
-0.354744
-0.316569
-0.437494
-0.429605
-0.488046
-0.359867
-0.241264
-0.271288
-0.0771049
0.00633039
-0.269572
-0.368416
-0.33682
-0.324777
-0.141508
-0.0851347
-0.216012
-0.125227
-0.121564
-0.147082
-0.0195375
-0.0236398
-0.44054
-0.365659
-0.357627
-0.417872
-0.26498
-0.190777
-0.183437
-0.49253
-0.532493
-0.436647
-0.387231
-0.313307
-0.323672
-0.342172
-0.276265
-0.168244
-0.182481
-0.271924
-0.487425
-0.358599
-0.40687
0.197786
0.199257
0.199235
0.210171
0.221762
0.237122
0.202615
0.181011
0.172404
0.1752
0.150543
0.160528
0.155185
0.167765
0.187213
0.194122
0.194271
0.196564
0.180563
0.182217
0.17005
0.17267
0.151871
0.134421
0.122901
-0.0811101
-0.0539747
-0.0794149
-0.0872076
-0.0162239
-0.0396517
-0.329657
-0.285103
-0.326617
-0.309191
-0.358822
-0.11415
-0.13827
-0.391248
-0.313245
-0.498806
-0.530791
-0.605264
0.570679
0.667283
0.502511
0.281264
0.283991
0.516065
0.606476
0.261616
0.415559
0.454735
0.245465
0.493718
0.208994
0.20856
0.206103
0.205571
0.207121
-0.32661
-0.220576
-0.212049
-0.154883
-0.0428929
0.0821373
-0.0251985
-0.156245
-0.0122529
-0.0111643
0.313599
0.332041
0.275565
0.301996
0.301302
0.128478
0.202721
0.258664
0.215201
0.256208
0.275781
0.24011
0.266494
0.218689
0.17459
0.175901
0.121492
0.135097
0.114218
0.098271
0.19892
0.176963
0.18687
0.178488
0.199167
0.226639
0.219559
0.247579
0.260208
0.184598
0.147202
0.153356
0.182958
0.146042
0.159463
0.172529
-0.101137
-0.169541
-0.135328
-0.421728
-0.331984
-0.40838
-0.439408
-0.326473
-0.0288453
-0.774884
-0.83107
-1.39122
0.159352
0.687657
0.375106
0.318508
0.410336
0.384742
0.386383
0.422276
0.424926
0.343674
0.3625
0.367422
0.31282
0.337785
0.367807
0.363997
0.200492
0.0689325
0.0589852
0.0250901
-0.0924974
-0.0592833
0.14227
0.0581577
-0.0131463
0.00340394
0.165889
0.0626932
0.125335
0.153421
0.0755913
0.0489437
0.238581
0.310802
0.301004
0.275254
0.191768
0.202054
0.232782
0.267975
0.293166
0.332257
0.19589
0.201382
0.202595
0.200178
0.19758
0.20022
0.200103
0.20289
0.203768
0.206897
0.205786
-0.362523
-0.345329
-0.34492
-0.363292
-0.326705
-0.326411
-0.265209
-0.283262
-0.29661
-0.285418
-0.330023
-0.32758
-0.338771
-0.323916
-0.195811
-0.198916
-0.210092
-0.242023
-0.0711667
0.0731888
0.128602
0.0105309
-0.0752652
-0.0497362
-0.0321001
-0.295157
-0.284623
-0.301772
-0.245088
-0.248408
-0.495982
-0.488895
-0.486696
-0.567428
-0.495501
-0.434115
-0.286218
-0.34535
-0.372918
-0.364183
-0.31785
0.182965
0.176687
0.178255
0.173128
0.171783
0.184464
0.188475
0.190469
0.19522
0.196506
0.188511
0.192382
0.195801
-0.364851
-0.226037
-0.287426
-0.354362
-0.256232
-0.188508
-0.226915
-0.203749
-0.274056
-0.274328
-0.313634
-0.437864
-0.381535
0.159701
0.149533
0.185278
0.370245
0.225683
0.153243
0.234612
0.332339
-0.0617342
0.133056
-0.0349301
0.545038
0.434744
0.572968
0.199486
-0.0959535
0.0608705
0.123004
-0.0946559
-0.0185017
0.00276158
-0.0955593
-0.0694315
-0.0498758
0.0556562
-0.0519682
-0.0763029
-0.329576
-0.139004
-0.0040546
-0.02155
0.108079
0.177974
-0.0845579
-0.15102
-0.180457
0.304077
0.32513
0.34816
0.313807
0.340359
0.261553
0.251413
0.270897
0.281221
0.275146
-1.11358
-0.8277
-1.73765
-1.0263
-0.589645
0.193627
0.151258
0.438793
0.326499
0.395651
0.378285
0.346988
0.309313
0.317664
0.353099
0.0610305
0.163397
0.139756
0.144672
0.0422532
-0.0133254
0.281133
0.272696
0.313635
0.336051
0.301392
0.337649
0.193736
0.193198
0.193228
0.190105
0.187881
0.189807
-0.234828
-0.260914
-0.221266
-0.242062
-0.26314
-0.280671
-0.483909
-0.467707
-0.440188
-0.408487
-0.439202
-0.45781
-0.17858
-0.235448
-0.297175
-0.273325
-0.326937
-0.396297
-0.413059
-0.314927
-0.227891
-0.222979
0.0781883
0.314119
0.14066
0.306228
0.175221
0.206451
0.185481
0.183293
0.219971
0.0726486
0.141845
-0.0544139
-0.58707
-0.467949
0.416313
0.484704
0.266217
0.130631
-0.158454
-0.0213622
0.231676
0.162235
0.205793
0.275661
0.269191
-0.321294
-0.286109
0.024937
0.22572
-0.0902587
-0.152654
-0.140607
0.0180075
-0.0293108
)
;

boundaryField
{
    wall-4
    {
        type            zeroGradient;
    }
    velocity-inlet-5
    {
        type            zeroGradient;
    }
    velocity-inlet-6
    {
        type            zeroGradient;
    }
    pressure-outlet-7
    {
        type            fixedValue;
        value           uniform 0;
    }
    wall-8
    {
        type            zeroGradient;
    }
    frontAndBackPlanes
    {
        type            empty;
    }
}


// ************************************************************************* //
