/*--------------------------------*- C++ -*----------------------------------*\
| =========                 |                                                 |
| \\      /  F ield         | OpenFOAM: The Open Source CFD Toolbox           |
|  \\    /   O peration     | Version:  4.0                                   |
|   \\  /    A nd           | Web:      www.OpenFOAM.org                      |
|    \\/     M anipulation  |                                                 |
\*---------------------------------------------------------------------------*/
FoamFile
{
    version     2.0;
    format      ascii;
    class       surfaceScalarField;
    location    "26";
    object      phi;
}
// * * * * * * * * * * * * * * * * * * * * * * * * * * * * * * * * * * * * * //

dimensions      [0 3 -1 0 0 0 0];

internalField   nonuniform List<scalar> 
1300
(
3.75095
5.62643
-5.69357
3.75095
-5.61217
5.62643
-4.51756
4.51756
-1.13246
1.13246
1.8765
1.87446
-3.04471
3.04471
-2.19799
2.19799
-2.55086
2.55086
-5.24637
5.24637
-5.0683
5.0683
4.66782
-4.66782
-4.13238
4.13238
-1.56268
1.56268
-4.00509
4.00509
3.16903
-3.16903
-3.70182
3.70182
-0.34742
0.34742
-0.553163
4.30412
3.19779
3.19779
-2.20373
2.20373
-4.86021
4.86021
6.21761
-6.21761
8.5129
-8.5129
-2.81932
-3.40469
1.46464
-8.8275
-4.14752
-4.14752
-8.44023
8.44023
-2.8138
2.81263
2.94237
-2.94237
-1.86251
1.86251
-4.42376
-0.0937952
-4.42376
4.54425
-0.0266975
4.54425
-1.264
0.131535
-1.264
4.0136
-4.0136
0.963847
0.168618
0.963847
3.06488
-3.06488
-1.8772
3.7537
1.87375
-1.87172
6.17584
-1.87923
3.75369
-5.85033
5.85033
-3.31025
0.26554
-3.31025
2.83114
0.213572
2.83114
-6.51595
6.51595
-2.34067
0.142681
-2.34067
2.32021
-0.122217
2.32021
2.84371
-2.84371
-2.64632
0.0954596
-2.64632
2.46905
0.0818084
2.46905
0.353706
5.27272
-5.98014
8.79277
-5.27272
0.0263528
5.20828
0.0380866
5.20828
-5.10586
0.0375618
-5.10586
5.0121
0.0561983
5.0121
4.74886
-0.0810361
4.74886
-4.78834
0.120524
-4.78834
-3.09938
-3.96327
-4.17945
0.0470751
-4.17945
-1.56648
0.00380206
-1.56648
1.51636
0.0463174
1.51636
-3.49006
3.49006
-4.35606
0.350979
-4.35606
3.12312
0.0459167
3.12312
1.86904
1.88191
5.62
-5.62
2.45096
-3.25131
-0.45051
-3.25131
-4.1025
-4.4104
4.1025
-0.400681
-0.615272
0.267852
-0.615272
3.15998
0.0378109
3.15998
2.37491
0.094147
-2.37491
0.171177
3.24595
-3.24595
1.58863
0.615095
1.58863
-5.56956
5.56956
4.95194
0.0601661
-4.95194
0.091732
6.15658
0.0610305
6.15658
-6.19992
-0.0176946
-6.19992
2.92333
-6.32803
-3.69556
4.14251
-0.0101306
-4.14251
-0.00501586
2.91141
0.0309617
2.91141
-2.92018
2.92018
-2.98288
0.0405158
-2.98288
-2.25295
0.390444
-2.25295
1.57061
0.2919
1.57061
-4.29743
-0.126332
-4.29743
-4.48438
0.128317
4.48438
0.0598717
1.06145
-1.06145
-1.4042
0.140205
-1.4042
-4.14847
-0.148953
4.14847
-0.134878
-3.87593
-0.13767
-3.87593
-3.02354
0.0406614
3.02354
0.0413367
3.11293
0.047053
-3.11293
0.0480449
-1.87088
3.75279
-1.88007
3.75382
-5.4712
-0.379127
-5.4712
6.16768
-0.317348
6.16768
3.66485
0.34024
-3.66485
0.354593
2.65962
0.17152
2.65962
-6.58563
0.0696857
-6.58563
6.23827
0.277674
6.23827
2.5137
0.145921
-2.5137
0.173027
2.51293
-0.192719
2.51293
2.85072
-0.00701052
2.85072
-2.85648
0.0127696
-2.85648
2.79994
-2.79994
2.72884
0.0711008
-2.72884
0.0825156
-11.1324
11.1147
-0.0348951
-11.0975
5.17339
5.17339
4.16767
0.581188
4.16767
-5.00278
0.214438
-5.00278
2.89045
-6.58601
3.89457
-6.99395
3.84589
-12.6734
3.30827
-7.27154
5.1029
-5.1029
4.50765
0.595257
-4.50765
0.328195
-1.58397
0.0174818
-1.58397
-2.88743
-0.602633
-2.88743
4.14877
-0.658709
4.14877
-3.02865
3.02865
-3.07739
0.0487381
3.07739
0.0457292
2.86986
-0.356928
-2.86986
-0.381451
0.789991
0.173856
-0.789991
0.174718
3.45719
-0.211241
3.45719
-3.0427
-0.203248
-3.0427
-1.5933
0.00933531
1.5933
-0.00466757
-5.81642
0.246859
-5.81642
-11.1909
0.0934174
-11.1528
-6.1065
-6.1065
2.33372
11.1265
-2.88272
0.0262429
2.88272
0.0286838
2.97554
0.0531081
-2.97554
0.0553589
-2.86156
0.0616197
2.86156
0.058625
-2.64161
0.388655
-2.64161
-1.15931
1.15931
-1.35057
0.191262
1.35057
0.22004
1.3014
-0.239953
1.3014
1.47088
0.0454881
-1.47088
0.0666716
-3.75992
-0.116011
-3.75992
6.37897
-0.211297
6.37897
-2.91449
-0.12821
2.91449
-0.0637751
-0.0334069
11.1481
-5.13998
0.0341174
5.13998
-11.2092
11.2433
-3.27221
0.630603
3.27221
0.895458
5.29226
0.2773
-5.29226
0.289475
5.73634
0.501935
-5.73634
0.633433
-2.40576
-0.481673
-2.40576
-4.89919
-0.572012
4.89919
-0.750418
-11.4728
-0.204428
11.6772
-11.4166
6.02084
0.135741
-6.02084
11.379
-1.04907
-0.0123814
1.04907
0.110237
1.57536
-0.273955
1.57536
3.648
-0.190811
-3.648
-0.111912
-6.50447
-0.0811642
6.50447
-0.125494
-1.96714
-0.438616
1.96714
-0.391781
-4.26681
4.30462
1.90903
-2.51905
-3.80898
-6.92944
1.85138
1.90141
4.30235
-8.00504
-4.66835
-8.01006
7.26659
-6.97712
-9.29157
9.21054
7.53903
-7.6767
-5.78697
5.8327
6.48174
-6.4404
1.87904
1.87466
7.91208
-7.64654
-15.6207
15.2416
6.18094
-6.03826
15.8676
-15.7979
-18.0558
18.5578
-5.74994
5.8454
-6.69105
6.70382
-6.87121
6.80743
-2.31003
-4.68392
11.5826
-11.5356
8.68104
-9.13155
-8.4954
8.84638
3.38187
0.922748
3.42893
-1.8824
3.76144
-1.87129
3.78031
4.0144
-6.32443
2.5716
-6.38058
5.08971
3.59133
-4.68903
-2.24041
-5.91682
5.94778
-5.82584
5.88447
8.90259
-8.99639
-1.88513
3.75979
-1.86869
3.7701
-3.42654
-2.36043
3.38063
0.92172
6.76763
4.81501
-6.7575
-1.25256
-7.80163
7.61081
-8.05541
7.85217
-0.441006
5.81715
-5.37614
4.4192
-1.54826
7.36541
5.71833
5.93277
5.86652
-5.58922
1.11059
-6.48673
-6.395
-2.54824
2.68844
2.51162
-2.34301
5.9145
1.62453
5.77962
-5.56232
-2.11438
-5.67833
3.82202
2.01068
3.87076
4.07508
2.40666
4.11574
3.03121
-3.03476
0.00355255
-3.05642
6.08763
0.725028
-5.41685
-4.49513
4.91129
3.00078
5.12486
-5.48025
-2.16628
-5.12566
-9.48601
-6.13467
-10.058
10.0835
5.1581
9.76611
-11.9455
11.82
3.59057
2.59037
3.46835
-4.2976
-1.74065
-4.12457
12.7503
-3.46465
-9.28564
-10.5152
-7.54068
10.2375
5.63011
10.7679
7.78985
11.4014
4.83748
7.9128
-10.4676
2.92691
-3.88299
-1.86695
-3.80048
3.72871
2.11669
3.81052
-4.20524
-2.48581
-4.17899
-4.25522
-2.61599
4.26223
2.44158
-4.32404
-3.73137
4.45225
2.35518
3.87935
-8.54771
3.39219
-8.07611
-8.69309
-2.84248
-8.3649
5.26063
1.28653
-6.54716
-1.06381
9.6848
-6.09347
7.44439
-4.51104
-4.62051
-4.89249
-6.77034
-1.72505
-6.64203
-8.81629
8.33462
-9.14696
8.48825
12.7392
-5.71508
-7.02414
-3.96813
-2.47227
3.92009
-0.491159
-3.71204
3.71559
0.0494074
3.82972
4.75247
4.26131
-3.88889
-1.93695
-3.83354
3.83712
2.04735
3.89874
6.7357
2.16689
6.709
-6.43056
-2.56583
-6.55689
9.07299
-8.68255
2.95776
-2.94843
5.26129
2.59087
-5.05005
-2.75157
6.10784
-3.06963
-3.03821
-12.2092
10.5828
1.62634
-4.84377
-0.424567
-0.0771467
-5.5012
-3.79037
5.38068
0.552089
11.1349
7.34455
-5.51352
5.76038
6.16368
6.22385
-0.171155
5.79762
-5.16702
5.35328
-2.44636
-2.90692
5.29098
-5.43993
-1.26591
-5.23691
3.971
0.339689
1.74256
-1.47471
-2.02763
-0.520613
-1.96095
1.48918
1.02244
1.66304
0.996963
1.69148
-2.93218
0.519991
2.41219
-1.93522
-1.82302
-3.68745
-1.04253
4.72999
5.58886
2.02195
-5.47695
-0.201386
2.73746
-2.69115
-0.811513
-2.87594
2.09329
-2.9048
-3.55444
-1.89626
5.4507
-3.37146
-0.462072
3.31836
0.552407
-3.82456
-2.09226
3.78404
0.331699
-3.12325
6.1881
-3.06485
-5.0602
2.52982
3.55781
4.5405
-4.78944
2.44604
2.34341
-1.23163
4.1305
0.994363
4.30202
-6.69293
4.52665
5.728
3.11838
-6.06824
0.942579
-5.75035
8.47266
-7.28063
-1.19203
4.10904
4.36362
7.20498
5.53424
-5.77543
12.9804
-1.16593
-6.11471
6.91628
-3.7979
4.71231
-8.51021
-10.2466
4.13185
-9.22988
10.9535
-1.72357
-3.60561
-8.33993
12.8355
-1.21489
-11.6206
8.55123
-4.09441
-4.90619
9.00059
-7.55906
6.64684
-1.38432
-5.26252
-10.1287
-5.66921
10.2099
1.61019
-11.4046
14.3315
-3.49177
3.12427
0.344084
2.93155
3.28328
-5.67449
2.3912
4.27577
-5.66009
1.85015
-7.52464
-7.2352
11.7748
-4.53963
-10.0777
-10.3254
0.247762
2.0839
12.2476
-9.87374
6.69373
3.18002
3.31447
0.584271
-3.38557
-0.414907
0.308487
4.5529
-4.86139
4.119
4.21315
3.43694
1.11596
3.83548
2.1123
-3.86417
-0.314829
-4.13716
1.52117
-1.69558
-3.65294
5.17412
-4.08998
0.437041
-2.73593
-3.54235
6.27828
-4.60287
3.04018
3.14791
5.08753
-4.92035
1.378
-2.42097
-2.49938
2.71199
-4.40756
1.95859
3.21553
4.31378
0.582403
6.62721
5.14762
-7.91375
-0.162368
9.96263
-8.71007
3.2449
8.15645
-9.93863
-0.386811
-8.75171
-0.244939
-5.84854
-6.7921
5.01264
-6.73769
-3.49758
6.12958
0.579423
-6.18945
-0.452573
-5.99312
-2.82317
-6.43174
-3.05422
-6.09274
-8.82965
-1.63925
-7.1904
6.69537
-6.62418
-3.43385
7.37459
1.11365
-7.36429
7.35191
-7.43113
7.15718
0.0944212
3.62117
4.35573
1.88346
-2.38953
4.27299
-5.02921
7.19611
-8.40486
3.37565
3.91805
-6.48387
-4.48681
5.04391
4.02908
5.33581
8.951
-10.5117
1.56075
-10.8612
12.1593
-1.29808
-16.6135
5.75227
-7.66251
2.69398
0.263779
2.71147
0.673066
2.41364
-3.08671
-2.27536
-2.28003
-2.30259
-3.35554
5.65814
1.12275
-3.37049
2.24774
-3.465
4.58775
-0.0634172
-3.30707
5.24187
-2.82823
5.50565
-3.52841
1.97724
3.27961
5.60966
-2.33005
4.29278
-1.70191
1.81433
-4.14438
-1.54121
-3.0038
5.12049
-3.27448
3.71152
-0.259099
3.97062
-4.06027
0.990647
-0.62333
3.58982
3.761
4.24913
-3.13317
2.93347
-4.63538
-1.21092
-4.05298
-0.837452
-0.311262
-3.78946
4.10072
6.07685
-6.38811
-5.24845
9.57527
-4.32682
7.74472
-5.40403
-2.34069
-4.26407
-4.41847
3.87542
1.9222
9.66692
0.235378
-5.63941
-4.93164
-4.03618
3.21468
2.1386
-1.97631
3.60265
2.05345
-0.310888
0.575686
1.08735
1.87413
-1.29844
0.212643
1.66148
-1.26207
2.00534
0.732126
-2.05083
0.089872
-1.38947
3.48276
1.02272
-2.04517
0.746729
1.01876
-3.46512
4.82094
-2.47137
-2.34958
5.8397
1.13542
-3.60679
4.10149
-3.7618
2.31192
-3.35445
-1.29487
-5.05667
-3.43214
-2.49025
4.73798
-3.16789
5.18985
1.18354
-4.98846
6.172
-3.53605
1.63978
-3.05306
3.78519
-1.0517
-2.00136
2.75511
2.69559
-2.90932
0.033378
-0.154204
2.30159
-2.45579
-0.603211
-2.53843
-4.57348
4.90518
-2.10617
4.5522
2.16683
-1.91404
6.46624
1.8114
-3.72544
-3.24879
-3.71087
-1.38204
3.15846
-0.129383
-3.99519
-5.3919
3.84927
0.452751
-6.95815
7.75473
-0.796582
-3.95737
-0.569282
4.67832
-5.85606
0.195962
-4.0059
3.74883
4.74319
5.19594
-11.4593
-0.161319
-6.30119
1.16417
-7.46537
5.52779
-3.66405
7.79589
-10.43
6.99617
-9.31637
6.60387
-0.861499
6.48715
-4.09594
2.79849
-8.4677
-6.85751
5.10462
-2.51425
5.4487
-2.99458
8.44328
-6.48634
5.02987
3.41341
-1.7101
-3.18239
-4.42209
2.71199
0.607773
3.53932
4.97387
-2.86157
4.65904
2.23433
-4.6553
-2.17323
-6.50066
1.84536
-3.35275
-1.91124
3.7566
3.17629
3.76056
1.25722
-3.34566
9.12315
-8.87539
-4.58352
-2.20858
5.16655
-2.45455
5.3025
-7.51108
-0.546037
4.9269
-0.888352
-4.03855
0.788175
-4.28575
1.64757
-5.93332
5.09012
-5.54269
2.16572
-9.82823
-5.19857
-5.08833
-2.22864
-5.2025
-7.66173
5.43309
-1.90946
5.44245
-8.6696
7.78125
-3.48972
8.92281
-5.40611
-1.02563
5.79789
1.35929
10.2821
0.146425
-4.63324
-1.90827
4.0183
-2.11003
1.30641
-3.64303
0.375266
2.42499
3.41472
-6.39599
-0.0878874
-4.72113
-3.92584
7.95492
5.64943
11.7263
1.21453
9.15253
-1.19761
10.3671
4.1382
4.35824
-3.02931
4.59006
1.07141
4.44706
-0.84455
2.82179
1.86692
1.87072
0.820428
2.29482
1.46618
3.28547
0.198758
-2.08127
4.6389
-8.67508
-1.00051
-8.09389
1.11664
5.83121
-4.71457
3.17044
-1.03184
1.0604
0.106652
-1.69511
1.58845
-2.80026
-2.00599
-0.344511
-1.60694
2.35367
1.87581
-2.00916
-0.791102
0.331703
-3.76384
3.02275
-2.98937
-0.293783
5.87822
-2.71871
0.262918
-1.07893
-2.27551
-2.79613
2.70626
6.17585
0.290391
3.111
5.19557
3.10331
0.241742
3.95786
-5.68143
-3.56679
-5.84275
-0.314956
4.36337
2.91408
9.33351
6.32749
3.87294
-3.63814
-12.5135
6.54302
-1.95297
5.24494
-1.20639
-4.72693
4.94511
2.251
-5.52453
-0.0181564
-4.74509
-6.69806
-0.580049
8.36129
-9.70205
8.67642
5.85325
1.33715
-4.3923
-0.696032
4.20104
0.1572
10.5243
-1.17593
-6.78925
7.96518
-4.65528
3.65477
0.82513
2.77752
2.41358
1.38175
-5.4075
-10.1221
-1.92215
-1.54297
-4.27173
0.458261
-2.33407
6.29063
-2.63586
3.94994
5.32932
6.38972
-2.1651
-4.223
6.49192
-2.54198
3.84774
)
;

boundaryField
{
    wall-4
    {
        type            calculated;
        value           uniform 0;
    }
    velocity-inlet-5
    {
        type            calculated;
        value           uniform -3.75095;
    }
    velocity-inlet-6
    {
        type            calculated;
        value           uniform -5.62643;
    }
    pressure-outlet-7
    {
        type            calculated;
        value           nonuniform List<scalar> 8(5.69357 5.61217 6.22401 7.36286 7.06265 6.61889 6.78502 7.15417);
    }
    wall-8
    {
        type            calculated;
        value           uniform 0;
    }
    frontAndBackPlanes
    {
        type            empty;
        value           nonuniform 0();
    }
}


// ************************************************************************* //
