/*--------------------------------*- C++ -*----------------------------------*\
| =========                 |                                                 |
| \\      /  F ield         | OpenFOAM: The Open Source CFD Toolbox           |
|  \\    /   O peration     | Version:  4.0                                   |
|   \\  /    A nd           | Web:      www.OpenFOAM.org                      |
|    \\/     M anipulation  |                                                 |
\*---------------------------------------------------------------------------*/
FoamFile
{
    version     2.0;
    format      ascii;
    class       volVectorField;
    location    "26";
    object      U;
}
// * * * * * * * * * * * * * * * * * * * * * * * * * * * * * * * * * * * * * //

dimensions      [0 1 -1 0 0 0 0];

internalField   nonuniform List<vector> 
918
(
(0.985092 -0.000558589 0)
(0.00477059 2.96626 0)
(-0.0208691 1.50774 0)
(0.979827 0.0024093 0)
(0.00100412 1.48314 2.02212e-20)
(-0.00704605 2.9489 -8.0108e-19)
(0.843927 1.19689 2.98487e-19)
(0.375231 0.177202 -3.66565e-21)
(0.999904 -0.000304731 0)
(0.0407449 0.887441 0)
(-0.0157989 0.622763 0)
(0.728304 -0.00777893 0)
(0.0115325 2.93011 0)
(0.00259425 2.79514 0)
(-0.0187924 3.15776 4.72829e-19)
(0.0201386 1.23326 7.97166e-20)
(0.479707 0.0744965 2.29088e-19)
(0.171514 1.2435 2.55949e-19)
(0.962055 0.00385086 0)
(-0.0338693 1.06267 0)
(0.108266 0.211792 -1.86657e-19)
(1.0022 -0.00520659 0)
(1.00075 -0.0101568 0)
(0.975965 -0.00652773 0)
(0.622354 -0.0379868 0)
(0.0183954 2.63432 0)
(-0.0149493 2.91023 2.62488e-19)
(-0.0465544 1.49607 0)
(-0.0563013 1.6541 0)
(-0.0320049 1.50046 0)
(-0.000953594 1.97425 0)
(0.0351914 1.5227 -1.56791e-20)
(0.0228712 1.31318 0)
(-0.0204473 2.98751 -2.79703e-23)
(-0.0169876 3.0054 6.36351e-19)
(0.00201665 3.00016 0)
(0.869799 -0.0091266 0)
(0.434472 0.974256 -7.74015e-21)
(0.811338 1.21823 -4.07978e-19)
(0.959412 1.04812 3.86529e-19)
(0.679848 1.32001 -6.8911e-20)
(0.686658 1.30738 3.88831e-19)
(0.415408 0.268671 3.57424e-21)
(0.403002 0.163097 0)
(1.15631 0.582816 0)
(0.382283 0.272109 1.66007e-20)
(0.324241 0.176819 -1.72375e-20)
(0.919526 -0.00735169 0)
(1.00031 0.000156454 0)
(0.999918 0.000346526 0)
(1.0035 -0.00769383 0)
(1.00095 -0.000969051 0)
(1.00019 1.13834e-05 0)
(0.0594612 1.76265 -9.16984e-20)
(0.0450803 1.01417 0)
(0.0881254 0.975033 0)
(0.023539 0.961581 0)
(0.045714 0.815093 0)
(-0.0436416 1.93822 0)
(0.0315986 0.75361 0)
(0.0110934 0.651603 0)
(-0.0229089 0.739101 0)
(-0.02908 0.671204 0)
(0.829076 -0.013837 0)
(0.850537 0.0241535 0)
(0.761006 0.00346956 0)
(0.828384 0.0250141 0)
(0.706611 -0.0139363 0)
(0.0153465 3.00065 2.87037e-19)
(0.0117009 3.00835 0)
(0.00649534 3.00259 0)
(0.014166 2.9972 3.16298e-24)
(0.00837473 2.9585 -4.33759e-19)
(0.0152063 2.98187 0)
(0.0112319 2.90367 0)
(0.0254575 2.93007 5.50347e-25)
(0.00480066 2.82528 0)
(0.0322524 2.91571 0)
(-0.00583453 2.74524 0)
(0.307143 3.55456 0)
(-0.14568 3.63218 0)
(0.137826 3.25022 -4.36446e-19)
(-0.0101361 2.98719 0)
(-0.108235 1.88622 0)
(0.0714382 1.42792 -7.86163e-20)
(-0.0235605 1.224 9.63237e-20)
(0.553408 0.157505 -7.90136e-20)
(0.477603 0.0509611 -7.6415e-20)
(0.53627 0.181771 -2.38107e-19)
(0.460941 0.0984914 -1.6019e-19)
(0.181135 0.88555 0)
(0.251503 1.3737 -2.62893e-19)
(0.372186 1.33733 4.35146e-19)
(0.987449 0.00818442 0)
(0.941499 0.00544307 0)
(1.00031 0.000428331 0)
(1.00326 0.00949317 0)
(1.00287 0.00780551 -4.54846e-19)
(0.991784 0.00990809 3.4715e-19)
(-0.0628023 1.14383 0)
(-0.0521344 0.941053 0)
(-0.0759897 1.46858 0)
(-0.0473304 1.27685 0)
(-0.0207092 1.19216 0)
(0.1668 0.222988 5.77165e-20)
(0.213933 0.202753 0)
(0.99334 -0.00826362 0)
(0.954435 -0.00608643 0)
(0.792206 0.029049 0)
(0.757913 0.0396585 0)
(0.681285 -0.0304929 0)
(0.964376 -4.60561e-05 0)
(0.693622 0.0624114 0)
(0.532719 -0.011689 3.04243e-19)
(-0.0355668 2.86552 1.30209e-19)
(0.0428452 2.90878 0)
(0.0564087 2.88354 0)
(-0.00481362 2.69741 0)
(-0.0136069 2.98502 2.39893e-19)
(-0.0182916 2.8952 0)
(-0.0159519 2.98804 -7.63168e-19)
(-0.0131679 2.92539 2.64889e-19)
(-0.102994 1.71182 0)
(-0.098766 1.76173 0)
(0.0709663 1.44587 1.98757e-21)
(0.0559545 1.45277 0)
(0.00986348 1.2721 0)
(0.937292 -0.00798427 0)
(0.855684 -0.00852961 0)
(0.863103 0.00666416 0)
(0.948731 -0.00778395 0)
(0.883267 -0.00762508 0)
(0.544237 1.17028 5.30409e-21)
(0.595844 1.21035 0)
(0.399654 0.924134 2.69093e-21)
(0.339901 0.78212 0)
(0.923407 1.08613 -1.1097e-19)
(1.03446 0.889067 2.29166e-19)
(0.374283 1.41599 0)
(0.537286 1.38713 0)
(0.534738 1.35137 0)
(0.115989 0.180763 -5.82254e-20)
(0.46148 0.25642 0)
(0.443792 0.147228 4.58566e-20)
(1.01019 0.942221 0)
(1.08403 0.793898 0)
(1.10583 0.736359 -2.02734e-19)
(1.13489 0.636041 0)
(1.18294 0.419134 2.4808e-20)
(0.957381 -0.00829308 0)
(0.962223 -0.0102317 0)
(0.901867 -0.0075894 0)
(0.984284 -0.00921011 0)
(0.974722 -0.009372 0)
(0.937391 -0.00590553 0)
(1.00017 0.00213977 0)
(1.00086 0.00144133 0)
(0.999863 0.000910937 0)
(0.0297777 2.03301 5.91276e-20)
(0.101352 1.70701 0)
(0.022108 2.1361 4.97029e-20)
(0.0413973 1.84221 -1.5596e-20)
(0.123929 1.23864 -2.11898e-19)
(0.0450153 1.10828 0)
(0.0868041 1.10742 0)
(0.0136901 0.894875 0)
(-0.0036903 0.755339 0)
(-0.0393042 2.1467 1.15588e-21)
(-0.0154812 1.95657 0)
(-0.0738911 2.07489 7.38886e-20)
(-0.0601883 1.85475 -1.47396e-19)
(0.0104075 0.863543 0)
(0.027164 0.81706 0)
(0.00354346 0.705844 0)
(-0.0421874 0.785437 0)
(-0.0393897 0.727512 0)
(0.925551 0.00842102 0)
(0.834488 -0.0116429 0)
(0.920725 -0.00179817 0)
(0.83577 -0.0121697 0)
(0.811121 0.00451701 0)
(0.903506 0.0178845 0)
(0.88092 0.0213344 0)
(0.786208 0.00396163 0)
(0.00409535 3.06431 -2.3708e-21)
(0.0166625 3.05771 0)
(0.015271 2.96903 0)
(0.00883905 2.87633 0)
(0.967066 3.99457 0)
(1.31255 3.25702 4.89219e-19)
(0.0696628 3.07832 0)
(-0.0257721 2.90885 0)
(-0.152261 1.75476 0)
(-0.155368 1.86314 0)
(-0.122769 1.80843 0)
(-0.0309001 1.97691 -1.34286e-21)
(-0.120122 1.9313 0)
(-0.0736373 1.91321 0)
(-0.0958386 1.51247 5.67489e-21)
(-0.0676686 1.59402 -8.90976e-20)
(0.0124927 1.46875 -9.85481e-20)
(-0.0806828 1.31594 0)
(0.583096 0.127613 1.15974e-19)
(0.49016 0.0239723 -1.13268e-19)
(0.268959 1.53037 0)
(0.235391 0.669025 -8.31845e-20)
(0.178527 1.62774 -2.72276e-19)
(0.197955 1.14885 2.72979e-19)
(0.90204 0.006068 0)
(0.967509 0.0107226 0)
(0.974565 0.010633 0)
(0.92347 0.00607745 0)
(-0.0603429 0.872099 0)
(-0.0584424 0.998082 0)
(-0.0630251 0.831908 0)
(0.329146 0.264803 1.51736e-19)
(0.272816 0.239803 -1.83048e-19)
(0.276055 0.189813 0)
(1.09238 0.0870962 -1.28938e-21)
(1.07298 0.0396083 0)
(1.00216 0.04199 0)
(0.899082 0.00344662 0)
(0.609884 0.0971079 0)
(0.636036 0.0700276 -4.90643e-19)
(0.509657 0.0051075 1.87577e-19)
(0.00933767 2.98162 1.65681e-19)
(-0.032789 2.86719 1.88717e-20)
(0.00206205 3.04963 -5.13397e-21)
(0.0207025 3.04326 1.91417e-19)
(-0.0153265 2.99628 8.81912e-21)
(-0.0128246 2.94946 -3.57882e-23)
(-0.0175762 3.01151 -1.66585e-19)
(0.0142276 3.02303 1.19886e-19)
(0.00670813 3.03675 -1.91197e-19)
(0.930026 -0.00188926 0)
(0.93734 -0.00376981 0)
(0.842212 -0.00797321 0)
(0.956654 0.0114014 0)
(0.943209 0.0125432 0)
(0.881718 0.00566104 0)
(0.91903 0.0152222 0)
(0.927108 0.0145537 0)
(0.838584 0.00540194 0)
(0.76231 1.43884 1.46468e-19)
(0.805873 1.53142 0)
(0.252284 0.403769 1.29031e-20)
(0.205454 0.676316 1.05209e-19)
(0.29309 0.754017 -6.11201e-20)
(0.305277 0.60244 1.12057e-19)
(0.305615 0.756181 3.23563e-19)
(0.113222 0.218222 8.82977e-20)
(0.511342 0.204455 1.71527e-19)
(0.488783 0.228182 4.33208e-20)
(0.456607 0.124576 8.71104e-20)
(1.1728 0.474218 1.18287e-19)
(1.18178 0.272012 1.23222e-19)
(-0.00234249 2.15152 9.23824e-24)
(0.0469218 1.90715 0)
(0.956231 0.0329241 0)
(0.925927 0.016706 0)
(0.856098 -0.008339 0)
(0.0112159 3.07463 0)
(0.0207371 2.94398 3.2415e-19)
(0.0171939 2.9564 0)
(0.00645425 2.85067 -3.23102e-19)
(0.00551818 3.0913 7.45587e-20)
(0.00588893 3.08171 0)
(0.891616 1.83622 -1.02984e-19)
(1.27756 2.38932 2.30146e-19)
(0.871998 1.9407 -5.86665e-19)
(0.0205594 2.98374 -1.2108e-19)
(0.0363831 3.00495 0)
(-0.0326351 2.88127 0)
(-0.121997 1.95575 -3.45839e-21)
(-0.10927 1.77394 1.64648e-19)
(-0.10861 1.70744 -2.51918e-21)
(0.277857 1.34998 2.70825e-19)
(0.186945 0.461234 -1.85253e-19)
(0.0529403 1.95634 1.84218e-19)
(0.156404 1.84732 -2.36823e-19)
(0.147286 1.43229 3.84827e-20)
(0.00187732 3.11894 -4.32298e-19)
(0.0124391 3.11883 4.88861e-19)
(-0.0093522 2.98101 2.06147e-19)
(-0.00445445 2.9781 -1.80836e-19)
(-0.0214046 2.8819 -2.10068e-19)
(0.00773982 3.0997 -5.46685e-19)
(0.00129474 3.1046 5.50383e-19)
(0.241175 0.674362 0)
(0.21394 0.671675 -2.06434e-19)
(0.13944 0.258562 9.36582e-20)
(0.320532 0.864221 2.61618e-19)
(0.167323 0.248037 -4.02076e-19)
(1.17648 0.17816 -2.13367e-20)
(1.18235 0.32019 0)
(1.16256 0.128131 4.80163e-20)
(-0.000331323 2.17769 9.71943e-22)
(-0.00361147 2.17635 0)
(0.027366 1.93628 0)
(0.345867 1.23644 -9.83978e-20)
(0.358464 1.05952 -2.10391e-19)
(0.174406 0.331969 3.61802e-19)
(1.00552 -0.0112246 0)
(1.0075 -0.00744636 8.34706e-20)
(-0.132839 1.65492 0)
(-0.138153 1.62995 0)
(1.00197 0.00348563 8.1319e-22)
(1.00386 0.0100367 1.70459e-19)
(-0.0230137 2.00106 1.77553e-21)
(-0.00193055 2.02866 0)
(0.0364659 3.18087 4.76243e-20)
(0.391116 3.48835 0)
(1.14029 0.636324 2.54116e-20)
(1.01325 0.0135337 -7.6333e-22)
(1.02092 -0.010957 0)
(1.00175 0.000128084 3.5351e-23)
(0.107728 1.35206 0)
(0.154799 2.56912 0)
(0.0534605 1.0814 0)
(-0.0150896 2.6284 -8.98438e-20)
(-0.136346 2.63301 -1.01762e-19)
(1.00878 0.0287681 1.01385e-21)
(1.05808 -0.00543322 0)
(1.08096 0.0198696 0)
(-0.180217 1.86649 0)
(-0.0972945 2.27105 0)
(-0.24624 1.3551 0)
(0.29051 1.46 -1.7566e-19)
(1.01122 -0.00996046 0)
(1.00934 -0.0153987 0)
(1.00251 0.000634689 1.05743e-19)
(1.00539 -0.00479432 -1.25834e-19)
(1.00122 -0.00109969 0)
(-0.238222 1.79468 0)
(-0.187283 1.66486 0)
(-0.187794 1.75049 0)
(-0.229445 1.37562 0)
(-0.185711 1.52179 0)
(-0.169689 1.44666 0)
(1.03409 -0.00747721 0)
(1.02132 0.016225 -4.26042e-22)
(0.791926 1.24543 2.03227e-19)
(1.00218 0.000428003 -1.05427e-19)
(1.00407 0.00536706 1.26621e-19)
(1.00116 0.00209477 0)
(1.01344 0.010495 1.02844e-19)
(1.00848 0.00861489 -1.27621e-19)
(1.00937 0.0156154 0)
(-0.0743144 2.25805 0)
(-0.0263287 2.12041 -4.70986e-20)
(-0.0135525 2.14091 3.99891e-20)
(1.19875 0.251724 -2.31659e-20)
(1.13419 0.0839666 0)
(0.0484998 3.07574 -2.14239e-19)
(0.0667957 2.85008 -1.68312e-20)
(0.146538 3.19495 3.50675e-19)
(0.141804 3.22493 8.11813e-22)
(0.134418 3.23781 0)
(0.0201355 3.13784 4.73221e-20)
(0.0786559 3.16105 2.05999e-19)
(0.0702473 3.1873 -9.24615e-20)
(0.0244701 3.12875 0)
(0.666326 0.316194 0)
(0.579058 0.365625 0)
(1.09387 0.65841 -9.89172e-20)
(1.1218 0.795413 1.53594e-19)
(1.15893 0.550553 0)
(1.20464 0.502924 0)
(1.01638 0.0135874 -1.92642e-19)
(1.01512 0.0147105 2.4039e-19)
(1.025 -0.0105931 0)
(1.02277 -0.0131114 0)
(1.00653 0.00236306 0)
(1.01026 0.00348536 0)
(1.00441 0.0017802 0)
(1.00977 0.00609474 0)
(1.00814 0.00606474 0)
(1.00442 0.00432645 0)
(0.098917 1.35286 0)
(0.0906565 1.30977 0)
(0.118004 1.37514 0)
(0.140747 1.40253 0)
(0.150153 2.58991 0)
(0.19359 2.64405 -8.98358e-20)
(0.0998676 2.6483 0)
(0.0855819 2.64868 -7.43315e-22)
(0.0282143 2.68172 8.6298e-20)
(0.0381135 1.0361 0)
(-0.0378433 0.911295 0)
(0.140032 1.11578 0)
(0.0655334 1.06097 0)
(0.0453213 2.09322 1.35095e-19)
(-0.123907 2.65168 -1.29121e-19)
(-0.0320091 2.67981 -1.42151e-19)
(-0.0905209 2.67728 0)
(-0.187268 2.66317 2.75015e-19)
(-0.213868 2.62217 1.66615e-19)
(0.0865823 2.17606 -8.58937e-20)
(-0.0862433 2.56172 1.7081e-19)
(-0.00891919 2.53484 1.73123e-19)
(1.01688 0.0358358 1.89199e-19)
(1.01063 0.0221545 -2.34192e-19)
(1.00921 0.0387256 -1.94053e-19)
(0.991498 0.0184579 2.49765e-19)
(1.05853 0.0026418 0)
(1.04534 -0.0123998 0)
(1.08045 0.0257638 0)
(1.06516 0.00341544 0)
(1.06154 -0.00561748 0)
(1.11589 0.0835133 0)
(1.09219 0.043619 0)
(1.09542 0.0354091 0)
(-0.120302 2.01331 6.95563e-22)
(-0.211136 1.95988 0)
(-0.140086 1.9534 0)
(-0.170398 2.40634 -4.94847e-20)
(-0.154075 2.41144 2.84738e-21)
(-0.355024 1.87595 -2.77691e-20)
(-0.274282 1.79752 2.79845e-20)
(-0.317377 1.58389 0)
(-0.285832 1.63044 0)
(-0.251219 1.65592 0)
(-0.267979 1.28892 0)
(-0.15165 1.11936 0)
(0.372032 1.47294 3.35163e-19)
(0.417065 1.48395 1.32657e-19)
(0.585441 2.43225 -6.51278e-20)
(0.408296 2.52777 1.77481e-19)
(0.346538 2.09083 -2.01367e-20)
(1.02105 -0.00845928 0)
(1.01544 -0.010066 0)
(1.01478 -0.0160459 0)
(1.00764 -0.00153776 0)
(1.00496 -0.00123592 0)
(1.00767 -0.00479791 0)
(1.00914 -0.00386089 0)
(1.01398 -0.00451815 0)
(1.02237 0.0160371 1.85239e-19)
(1.01826 0.0165479 -2.35167e-19)
(1.02304 0.017813 -1.83232e-19)
(1.02045 0.0169032 2.29739e-19)
(0.758916 1.29814 0)
(0.696348 1.35199 2.4519e-19)
(0.8625 1.20278 1.43511e-19)
(0.925148 1.144 -1.90843e-19)
(1.15812 2.61141 -2.27483e-19)
(0.835871 0.101712 1.20327e-19)
(1.12935 0.109271 0)
(1.18269 0.186924 2.20778e-20)
(1.17038 0.151995 9.32319e-22)
(0.992362 0.125673 0)
(0.162419 2.96036 4.45196e-20)
(0.120577 2.86709 -2.9842e-19)
(0.0337362 2.37477 1.95234e-19)
(0.0979169 0.0634601 -7.65979e-20)
(0.33916 3.42866 -1.79085e-19)
(0.197029 3.32203 0)
(0.230238 3.36044 2.33062e-19)
(0.259189 3.04108 -2.92863e-19)
(0.362899 3.20267 0)
(0.00765743 3.12028 1.10346e-20)
(0.0173983 3.12923 -1.42938e-19)
(0.0161036 3.12507 2.09633e-19)
(0.0368199 3.13972 0)
(0.03493 3.1509 0)
(1.19474 2.653 0)
(0.552672 0.844373 -9.87687e-20)
(1.04994 0.96885 -7.87456e-20)
(0.955486 1.05813 0)
(0.800854 0.938481 1.95325e-20)
(1.03725 0.867282 1.11643e-20)
(0.368333 0.425101 -2.17094e-19)
(0.701516 0.33246 -9.07019e-21)
(0.690207 0.255461 9.345e-20)
(0.586398 0.412177 7.22314e-21)
(0.515438 0.372275 -2.95645e-19)
(0.669733 0.361423 0)
(0.69967 0.430608 1.5242e-19)
(0.704255 0.426788 0)
(0.622155 0.396221 0)
(0.61237 0.316438 0)
(0.779076 0.605782 5.57681e-20)
(1.18432 0.275974 8.07278e-21)
(1.19227 0.409649 0)
(1.21672 0.350547 0)
(0.768833 0.205469 1.37933e-19)
(0.825837 0.543356 -7.70296e-20)
(0.733663 0.517418 1.2585e-19)
(0.921962 0.415546 -1.17827e-19)
(1.02041 0.0145096 1.26413e-19)
(1.0183 0.0142929 -1.28926e-19)
(1.01596 0.0162252 0)
(1.03531 -0.00677591 0)
(1.02918 -0.00896242 -1.15837e-19)
(1.02698 -0.0134429 1.14808e-19)
(1.0255 0.00899508 0)
(1.02426 0.0124011 0)
(1.0113 0.0037632 0)
(1.01444 0.00863783 0)
(1.0149 0.00360597 0)
(1.01378 0.0028247 0)
(0.0705843 1.33664 0)
(0.0736489 1.25846 0)
(0.146218 1.32916 1.30035e-19)
(0.266199 1.46003 1.01063e-19)
(0.157131 1.43152 2.21709e-19)
(0.191241 1.44305 -3.58192e-19)
(0.178675 1.36569 0)
(0.131392 1.60257 1.12064e-19)
(0.105922 1.56186 0)
(0.35029 2.04087 2.90981e-20)
(0.352858 2.38163 8.98547e-20)
(0.183799 1.44013 -9.80041e-20)
(0.258208 1.35577 7.47925e-20)
(0.199528 1.34657 -5.99166e-20)
(0.25792 1.29683 1.24089e-19)
(0.229836 1.5814 0)
(0.247855 1.61119 -7.79055e-20)
(0.0393343 2.27275 4.08915e-20)
(0.0455633 2.66717 0)
(0.065607 2.39818 -7.15523e-20)
(0.0335665 2.42298 0)
(0.0660374 2.65327 3.88183e-22)
(0.0513046 2.6927 0)
(0.157606 1.49286 1.80176e-19)
(0.219208 1.62348 0)
(0.196389 1.37799 0)
(0.209703 1.3574 -2.02758e-19)
(-0.0150596 2.65536 -1.54969e-20)
(0.035156 2.69147 -1.12882e-19)
(0.00654019 2.7189 -8.02906e-22)
(-0.0703543 2.17185 -1.47679e-19)
(0.126109 1.8914 -7.00285e-20)
(-0.0722065 0.963022 0)
(-0.0553496 0.892025 0)
(0.0875749 1.64334 -1.83057e-19)
(0.156629 1.47303 -1.86241e-19)
(0.137112 1.63121 2.37818e-19)
(0.061877 1.62998 0)
(-0.301029 2.23541 1.94984e-19)
(-0.247041 2.42814 -7.62707e-20)
(-0.264411 2.44777 2.65354e-20)
(-0.154957 2.1389 1.76384e-19)
(-0.254188 2.56224 5.67764e-20)
(-0.206623 2.57099 -2.18301e-19)
(1.02219 0.0209209 -1.2357e-19)
(1.01955 0.0275547 1.24888e-19)
(1.01638 0.0193619 0)
(1.01788 0.0549321 1.77829e-19)
(0.996819 0.0464223 -2.08302e-19)
(0.961103 0.022847 2.41437e-19)
(1.01598 0.0844606 -2.30684e-20)
(1.04124 -0.00718098 0)
(1.0481 -0.00382656 1.04226e-19)
(1.03731 -0.0114333 -1.03866e-19)
(1.06634 0.0327937 -5.71365e-21)
(1.05893 0.0129539 5.10675e-20)
(1.06443 0.0439394 0)
(1.05887 0.03779 -1.89058e-20)
(1.03796 0.0336536 0)
(1.03305 0.0321139 0)
(1.02704 0.0124878 0)
(1.02471 0.0152809 0)
(1.04328 0.0262696 3.93317e-20)
(1.0395 0.019408 -8.96386e-20)
(1.05266 0.0209529 -4.02145e-20)
(1.05171 0.0217493 -4.60667e-20)
(1.07043 0.0532466 8.32008e-20)
(1.08085 0.0492018 0)
(1.09092 0.0926206 0)
(-0.306145 2.20078 4.54559e-20)
(-0.256711 2.00899 2.29989e-21)
(-0.262545 2.04241 0)
(-0.182632 2.19825 -4.59229e-20)
(-0.120492 2.06699 -2.91645e-21)
(-0.152474 2.12631 7.31753e-21)
(-0.21093 2.61828 -1.42891e-19)
(-0.232372 2.54265 1.03075e-20)
(-0.25755 2.54713 -4.5667e-20)
(-0.203727 2.5477 9.66153e-20)
(-0.209881 2.54567 -1.13422e-19)
(-0.435585 1.74463 -4.31723e-21)
(-0.374649 1.90717 -8.12065e-20)
(0.354556 1.40118 -1.65397e-19)
(0.351234 1.35139 -1.58436e-19)
(0.641746 1.40243 -2.36992e-19)
(0.510474 1.46838 -1.28066e-19)
(0.568289 1.4421 0)
(0.577845 2.40755 5.41748e-20)
(0.647517 2.39931 9.62449e-20)
(0.406243 2.50429 3.52703e-20)
(0.40721 2.5562 -6.22964e-20)
(0.521555 2.51749 1.08723e-19)
(0.538054 2.44589 0)
(0.479444 2.49391 -1.49068e-19)
(0.240435 2.57205 2.5358e-19)
(0.350083 2.55513 -3.11786e-20)
(0.285948 2.63246 -3.7788e-19)
(0.914099 2.37941 1.11795e-19)
(0.815527 2.37631 0)
(1.01075 -0.000112486 4.16262e-21)
(1.015 -0.00551639 -3.44579e-21)
(1.01732 -0.00355948 -6.15316e-20)
(1.01463 -0.000864928 6.22159e-20)
(1.01205 0.000723757 0)
(0.623659 1.26819 0)
(0.631 1.14808 0)
(0.727205 1.05501 0)
(0.628741 1.11327 0)
(1.18371 2.62423 2.69899e-20)
(1.07347 2.36595 0)
(0.853495 2.21442 -5.75884e-22)
(0.82417 2.47688 0)
(0.918767 2.5601 6.34363e-21)
(0.956575 2.5159 -4.12852e-21)
(0.839605 0.14976 0)
(0.813491 0.133797 3.4363e-20)
(0.926036 0.123305 1.7892e-19)
(0.85708 0.115033 -7.1083e-20)
(0.846835 0.0628202 -2.15036e-19)
(1.04393 0.217973 -1.10154e-19)
(0.967689 0.280747 -6.2836e-21)
(0.904556 0.264577 1.63354e-19)
(0.983865 0.201564 1.22131e-19)
(0.940387 0.159389 -2.25802e-19)
(0.915457 0.16881 2.90259e-20)
(0.939417 0.225813 -5.7188e-20)
(0.919842 0.191697 0)
(0.978556 0.159522 1.08407e-19)
(1.02691 0.167003 0)
(1.02044 0.196954 0)
(1.07973 0.113617 3.56083e-20)
(1.05711 0.160242 -5.57863e-21)
(1.04129 0.220963 -1.85717e-20)
(1.07902 0.194804 0)
(1.02753 0.0370945 9.43796e-20)
(1.04937 0.0483022 1.10843e-19)
(1.04062 0.0348426 -9.28571e-20)
(1.04916 0.0542972 -7.47454e-20)
(1.02402 0.0592775 -1.25485e-19)
(0.982305 0.125525 0)
(1.00203 0.0807525 0)
(0.972007 0.0438089 -8.71527e-20)
(0.929075 0.057393 3.59391e-20)
(1.03697 0.0837485 1.05491e-19)
(1.05668 0.110956 -1.07728e-19)
(1.06344 0.136359 9.66105e-20)
(1.02348 0.129787 0)
(1.06523 0.0990841 0)
(1.05465 0.0770914 -4.49655e-20)
(1.04865 0.0826225 -8.45885e-20)
(0.582676 1.0958 -3.42141e-20)
(0.627066 1.41501 7.06519e-20)
(1.16372 2.75068 3.82469e-20)
(1.24042 3.08295 -3.28436e-20)
(1.2508 2.72163 2.57304e-19)
(1.28269 2.7196 -1.58266e-19)
(1.16881 2.36294 8.69614e-21)
(1.2285 2.9779 7.8615e-20)
(1.24888 2.94758 -8.25312e-20)
(1.24608 3.23986 -1.38823e-19)
(1.36941 2.97837 1.61366e-19)
(1.30972 2.90241 0)
(0.545994 0.849983 -5.98395e-21)
(0.128992 1.26552 1.66917e-19)
(0.543277 0.488329 1.45466e-19)
(0.356766 0.24505 1.5255e-19)
(0.532007 0.412405 1.66723e-19)
(0.553366 0.480001 -2.63928e-19)
(0.547988 0.497593 2.16964e-19)
(0.498791 0.428897 -8.63963e-20)
(0.430119 0.360018 1.96777e-19)
(0.771115 0.258787 -7.72119e-20)
(0.730479 0.288879 0)
(0.725211 0.229051 4.00045e-21)
(0.718129 0.521297 7.8018e-20)
(0.690106 0.484367 -2.89218e-19)
(0.603472 0.490072 6.00629e-21)
(0.619688 0.473994 0)
(0.665756 0.724292 6.55042e-20)
(0.817431 0.767078 2.34826e-20)
(0.736918 0.842893 -3.08246e-20)
(0.851448 0.794289 -7.37503e-21)
(0.876035 0.823314 5.22297e-21)
(0.883584 0.826481 -5.36514e-21)
(0.827963 0.631013 -9.54343e-20)
(0.895311 0.697689 6.87417e-21)
(0.946233 0.700472 0)
(0.927872 0.667708 -9.44139e-21)
(0.994208 0.304201 2.65755e-20)
(1.0871 0.280311 7.69498e-21)
(1.02748 0.255417 4.44181e-20)
(0.977442 0.34764 -6.11434e-20)
(1.01823 0.410823 0)
(1.06353 0.399292 0)
(0.896014 0.347351 2.54936e-21)
(0.837956 0.287594 0)
(0.857355 0.27912 8.30871e-20)
(0.893726 0.272853 -3.85778e-21)
(0.912378 0.417668 3.22915e-19)
(0.871368 0.483032 8.27615e-20)
(0.871764 0.447084 -1.06288e-19)
(0.801416 0.435097 1.14076e-19)
(0.787039 0.439086 7.75068e-20)
(0.751599 0.423202 -7.54254e-20)
(1.02803 -0.000923811 9.82762e-20)
(1.01994 -3.66977e-05 0)
(1.01848 0.000969337 6.63401e-20)
(1.0214 -0.00232512 -1.48731e-19)
(1.02202 0.0040995 7.23552e-20)
(1.02044 0.0108004 -1.52568e-19)
(1.02141 0.0103839 0)
(1.02144 0.0103007 -3.16739e-20)
(1.01583 0.00762415 7.99612e-20)
(1.01688 0.0100665 -4.0595e-20)
(1.01767 0.00920173 2.98212e-20)
(0.0994345 1.20487 0)
(0.186275 1.29697 0)
(0.0867925 1.29127 0)
(0.0694337 1.1494 0)
(0.0641655 1.38752 -2.85062e-19)
(0.0792309 1.3505 9.37925e-20)
(0.10702 1.4863 6.11621e-20)
(0.0778789 1.35625 -6.74764e-20)
(0.106205 1.4834 1.77395e-19)
(0.0950158 1.45384 -1.33653e-19)
(0.0762272 1.36832 -9.51172e-23)
(0.0928609 1.38196 1.76744e-19)
(0.119936 1.33041 2.61492e-20)
(0.138798 1.38717 2.32503e-20)
(0.106257 2.39442 7.76769e-20)
(0.0973574 2.4326 0)
(0.176956 2.09091 -1.62868e-20)
(0.102787 1.71603 -4.56842e-20)
(0.226572 2.08026 1.11492e-20)
(0.21562 2.45387 0)
(0.272346 2.41003 -4.83288e-20)
(0.306004 2.41293 3.42433e-20)
(0.224011 2.02003 2.64306e-20)
(0.151752 2.18585 5.48917e-21)
(0.153052 2.317 0)
(0.0477811 1.91365 1.81371e-19)
(-0.0223012 2.41416 2.02877e-19)
(0.0294232 2.21273 0)
(0.012242 2.45301 -6.80816e-21)
(-0.000381473 2.31064 -8.27885e-20)
(0.092696 1.36948 -3.63494e-20)
(-0.0284022 1.24674 5.93452e-19)
(-0.0202078 1.32981 -1.57659e-19)
(0.101703 1.45754 -2.11558e-19)
(0.130215 1.54152 0)
(-0.124446 1.18627 0)
(-0.210498 1.10507 -1.38067e-19)
(-0.252461 1.1715 4.50326e-20)
(-0.171418 1.15899 0)
(-0.137094 0.993298 -1.1221e-19)
(-0.126472 0.997883 2.13063e-19)
(1.04063 0.0085093 0)
(1.04559 0.00469948 -9.71744e-21)
(1.03949 0.0169727 -7.13119e-20)
(1.04838 0.0126461 0)
(1.05041 0.0120923 0)
(1.03551 0.00903472 -2.54777e-21)
(1.03158 0.00977083 1.17897e-19)
(1.03099 0.0140939 1.43821e-19)
(1.02634 0.018436 0)
(1.02464 0.0191597 0)
(1.03556 0.021516 7.20963e-20)
(1.0283 0.0251148 0)
(1.02726 0.0237648 0)
(-0.372232 2.23151 0)
(-0.416867 1.96779 -2.02338e-20)
(-0.421053 2.12913 -4.36733e-20)
(-0.276245 1.32526 0)
(-0.460317 1.86013 -8.94381e-20)
(-0.442045 1.67511 2.6427e-20)
(-0.391056 1.40323 0)
(0.380317 1.70609 0)
(0.355653 1.27489 2.56729e-19)
(0.30552 1.33899 0)
(0.409201 1.26599 -3.34094e-19)
(0.454687 1.4365 0)
(0.434426 1.38073 1.56063e-19)
(1.02213 2.69929 -2.08852e-21)
(0.946115 2.41587 -1.37189e-19)
(0.881128 2.17209 1.71024e-19)
(0.839719 2.3691 5.79525e-20)
(0.837744 2.52256 0)
(0.900571 2.51183 0)
(0.874487 2.38276 0)
(0.910612 2.33869 -2.03353e-19)
(0.688112 2.49317 -1.05429e-20)
(0.799604 2.48896 -5.88004e-21)
(0.810061 2.45805 4.65819e-21)
(0.67989 2.37891 0)
(0.781734 2.37831 0)
(0.740774 2.38668 -9.62255e-20)
(0.763056 2.51186 0)
(0.597275 1.09233 0)
(0.491134 0.936814 -5.69216e-21)
(0.56337 0.95452 -1.23662e-21)
(0.524749 1.0658 0)
(0.531712 1.02437 9.42057e-21)
(0.758833 0.8637 4.2688e-21)
(0.762236 0.991786 0)
(0.737529 0.938451 -2.22048e-20)
(0.620924 1.02715 0)
(0.633765 0.933232 0)
(1.16423 2.76562 1.68703e-20)
(1.14213 2.8311 4.58386e-20)
(0.941144 2.35285 -1.06668e-19)
(0.901331 2.32927 1.03317e-20)
(1.12533 2.73596 0)
(1.07574 2.70557 -1.2773e-20)
(1.08206 2.48686 -4.17022e-20)
(0.980283 2.22977 -1.29623e-20)
(0.494264 1.37544 0)
(0.49786 1.07628 2.99811e-20)
(0.539903 1.13183 0)
(0.861667 0.214298 0)
(0.818299 0.171348 0)
(0.776258 0.153329 0)
(0.850751 0.223802 -1.31352e-19)
(0.790214 0.223053 8.18707e-20)
(0.937354 0.0485927 -7.45734e-20)
(0.952374 0.098027 0)
(0.925003 0.103472 3.32014e-20)
(0.882297 0.082839 1.36478e-19)
(0.872051 0.042161 -8.41054e-20)
(1.17798 3.37475 -4.15537e-19)
(1.22975 3.29315 0)
(1.14412 3.39262 -7.88582e-19)
(0.64326 3.55058 6.94997e-19)
(0.857126 3.11328 1.39104e-19)
(0.514413 0.877877 1.03121e-19)
(0.429737 0.872658 0)
(0.341506 0.530687 -3.46694e-20)
(0.45674 0.685685 1.61674e-19)
(0.542188 0.494909 -4.57154e-20)
(0.519825 0.531536 5.32396e-20)
(0.648847 0.534963 1.11364e-19)
(0.677929 0.55151 0)
(0.643607 0.613619 0)
(0.59655 0.55104 0)
(0.939737 0.579371 -1.79863e-20)
(0.874307 0.528039 -7.94163e-20)
(0.898252 0.558655 4.08927e-20)
(0.927233 0.499719 -5.87685e-20)
(1.03393 0.468228 0)
(1.02966 0.547402 -3.98204e-21)
(0.827093 0.389152 -1.70268e-19)
(0.833155 0.373274 -1.92405e-19)
(0.782085 0.383712 1.33019e-19)
(0.779056 0.356474 -1.486e-19)
(0.83422 0.312762 -1.10628e-19)
(0.786667 0.309447 1.36219e-19)
(1.02639 0.00488368 -7.59424e-20)
(1.02604 0.00550555 1.57072e-19)
(1.02917 -0.00141791 9.32517e-20)
(1.03271 0.000513202 -1.13978e-19)
(1.03308 0.00678629 0)
(1.03005 0.00756897 -1.85669e-19)
(0.036068 1.65438 -2.60559e-20)
(0.0519975 1.57614 0)
(0.0647359 1.68535 -1.97831e-19)
(0.0788104 1.67244 1.8124e-19)
(0.0776535 1.49876 -1.14181e-19)
(0.0888605 1.48908 0)
(-0.214653 2.14872 0)
(-0.208581 1.63591 6.01869e-20)
(-0.377851 1.64141 -5.43684e-20)
(-0.404563 1.87206 -2.29424e-20)
(-0.343018 2.25354 9.69731e-20)
(-0.297417 2.26025 -4.69091e-20)
(0.489861 1.38341 1.67922e-19)
(0.488423 1.39087 -1.7736e-19)
(0.432818 1.26609 1.69493e-19)
(0.426795 1.28971 -1.02599e-20)
(0.610142 1.27948 0)
(0.530965 1.3719 2.13457e-19)
(0.547204 1.38128 -2.07107e-19)
(0.439798 1.25516 -1.64041e-19)
(0.493319 1.21402 0)
(0.540346 1.17872 0)
(0.649061 2.44942 1.58259e-20)
(0.670279 2.48073 2.17359e-19)
(0.709742 2.49686 -1.48877e-19)
(0.614191 2.48583 -4.8506e-20)
(0.560927 2.57593 4.38516e-20)
(0.523627 2.55468 -1.24913e-19)
(0.963699 2.371 -9.17051e-20)
(1.00698 2.391 0)
(0.903138 2.15009 -1.24089e-19)
(1.04379 2.68771 0)
(1.04568 2.67404 0)
(0.615412 2.26422 6.86863e-20)
(1.03334 3.16189 1.83649e-19)
(0.901258 3.02162 -1.33937e-19)
(0.292635 0.943679 0)
(0.341526 0.794254 -6.80777e-20)
(0.482695 0.761725 -3.38738e-20)
(0.414838 1.98998 0)
(0.4791 2.78799 -9.84726e-20)
(0.440456 2.57232 0)
(0.676511 0.666054 -1.34901e-19)
(0.752879 0.675407 1.68044e-19)
(0.779292 0.618385 -1.6281e-19)
(0.666505 0.638385 -1.97722e-20)
(0.709955 0.594696 -7.99091e-20)
(1.01783 2.77078 -1.38688e-19)
(1.04634 2.83763 1.27562e-19)
(0.667022 2.16046 5.64383e-20)
(0.593806 1.73083 -4.82354e-20)
(0.715386 1.92307 3.8052e-20)
(0.998239 2.47683 -2.60259e-20)
(0.998741 2.46727 -7.67378e-20)
(0.681873 1.89154 -3.05674e-21)
(0.468813 1.3566 -2.57546e-20)
)
;

boundaryField
{
    wall-4
    {
        type            noSlip;
    }
    velocity-inlet-5
    {
        type            fixedValue;
        value           uniform (1 0 0);
    }
    velocity-inlet-6
    {
        type            fixedValue;
        value           uniform (0 3 0);
    }
    pressure-outlet-7
    {
        type            zeroGradient;
    }
    wall-8
    {
        type            noSlip;
    }
    frontAndBackPlanes
    {
        type            empty;
    }
}


// ************************************************************************* //
