/*--------------------------------*- C++ -*----------------------------------*\
| =========                 |                                                 |
| \\      /  F ield         | OpenFOAM: The Open Source CFD Toolbox           |
|  \\    /   O peration     | Version:  4.0                                   |
|   \\  /    A nd           | Web:      www.OpenFOAM.org                      |
|    \\/     M anipulation  |                                                 |
\*---------------------------------------------------------------------------*/
FoamFile
{
    version     2.0;
    format      ascii;
    class       volScalarField;
    location    "1";
    object      p;
}
// * * * * * * * * * * * * * * * * * * * * * * * * * * * * * * * * * * * * * //

dimensions      [0 2 -2 0 0 0 0];

internalField   nonuniform List<scalar> 
918
(
1.80418
0.746083
0.238359
1.81545
0.0326142
0.689141
-0.243446
1.29757
1.85361
0.279805
0.226875
1.52742
0.426784
0.310878
-0.281815
0.113285
1.53137
-0.394998
1.61446
0.146007
0.106549
1.93477
1.72582
1.59837
1.50624
0.0925796
0.468955
0.0930416
-0.0714754
-0.0102974
0.0701596
0.113703
0.0510644
0.457174
0.630809
0.716748
1.56324
0.984482
0.0102839
-0.0389522
-0.128112
-0.371332
1.3354
1.36442
0.620888
1.24467
1.17807
1.62032
1.79278
1.86244
1.73782
1.79015
1.92428
0.590451
0.27777
0.221135
0.308204
0.288928
0.350606
0.244807
0.241121
0.259967
0.24869
1.4567
1.52962
1.52956
1.53759
1.52277
0.705279
0.677084
0.756419
0.353852
0.503845
0.400319
0.492006
0.312064
0.33939
0.344237
0.357411
-0.337149
-0.753752
0.049195
0.0744078
-0.00656119
0.132007
0.133442
1.52932
1.53991
1.50287
1.49651
1.03946
-0.208748
-0.426481
1.62714
1.64335
1.88263
1.75038
1.76404
1.6705
0.15701
0.146385
0.126486
0.161463
0.151711
0.432224
0.662126
1.60527
1.65182
1.51225
1.53432
1.53422
1.24428
1.57013
1.55547
0.277034
0.393103
0.162446
0.238362
0.439173
0.380962
0.490771
0.469559
-0.0675886
-0.000161195
0.131048
0.0625538
0.118962
1.56211
1.54008
1.58281
1.56859
1.59416
0.879784
0.804308
1.04886
1.12426
0.248401
0.207773
-0.282221
-0.266606
-0.458316
1.24205
1.39851
1.42805
0.445624
0.623727
0.419128
0.723761
0.704209
1.5971
1.62504
1.60173
1.65128
1.64299
1.65993
1.7995
1.78229
1.88332
0.632839
0.70053
0.577096
0.526269
-0.043092
0.102304
-0.033195
0.270533
0.301013
0.371415
0.378797
0.363738
0.323536
0.287539
0.267439
0.286681
0.205938
0.186685
1.44391
1.43042
1.4782
1.49368
1.55596
1.5479
1.54376
1.556
0.492312
0.523265
0.460465
0.413853
-1.23738
-3.08026
0.112529
0.186144
0.00817198
-0.00732893
0.0021527
0.0174489
0.00236117
-0.00764222
0.2238
0.184754
0.144535
0.198282
1.5438
1.56116
1.03189
1.08879
0.955556
0.951197
1.6213
1.63823
1.6504
1.64224
0.182949
0.174822
0.188131
1.10685
0.887149
0.989566
1.19881
1.11066
1.30371
1.33896
1.55373
1.54585
1.56597
0.230037
0.307375
0.735733
0.484376
0.633574
0.515571
0.430909
0.480275
0.396708
1.50109
1.5292
1.5292
1.59933
1.59662
1.60906
1.56404
1.57129
1.56328
0.629722
0.41783
1.24444
1.19055
1.13646
1.19935
1.24112
1.25074
1.47617
1.43812
1.46462
0.89445
0.878575
0.460162
0.442985
1.37689
1.41345
1.39359
0.452217
0.347027
0.477896
0.446236
0.396532
0.467198
0.389034
-0.105946
0.127694
0.254686
0.235679
0.211283
0.289085
0.280974
0.277763
1.08498
1.14073
0.73628
0.859268
0.835535
0.190126
0.24449
0.346336
0.259325
0.290358
0.399173
0.34403
1.21479
1.21786
1.25344
1.17978
1.21321
1.07675
0.950438
0.940745
0.392343
0.415992
0.397617
1.12504
1.16446
1.16573
1.63577
1.67084
-0.0556247
0.0518398
1.74529
1.80564
-0.0483477
0.00515267
0.24492
0.276456
0.974221
1.65948
1.64239
1.71217
0.265586
0.533013
0.230071
0.315156
0.263712
1.51014
1.46988
1.39999
-0.0112495
0.15142
0.151706
0.121437
1.7137
1.66368
1.75668
1.75278
1.74484
0.0358623
0.00123449
0.029162
0.112535
0.1316
0.1602
1.59244
1.55976
0.301658
1.74505
1.74171
1.72981
1.70319
1.72013
1.66048
0.121925
0.0941305
0.142685
1.21221
1.31879
0.322717
0.0683688
0.398132
0.226205
0.0895491
0.282016
0.293928
0.274127
0.254862
1.38976
1.26674
1.07666
0.869122
1.07645
1.06061
1.65892
1.65403
1.65269
1.61614
1.68657
1.59896
1.74002
1.67424
1.70575
1.74775
0.316255
0.354297
0.325475
0.183516
0.591056
0.678089
0.507471
0.548716
0.349399
0.202282
0.237785
0.211509
0.271613
0.273528
0.315403
0.313821
0.358417
0.293539
0.292626
0.223666
0.379909
0.28811
1.47908
1.52886
1.50713
1.55007
1.4761
1.50631
1.43058
1.45337
1.45591
1.35818
1.41477
1.38938
0.0229493
0.0784778
0.0917667
0.15319
0.167954
0.0406335
0.0845731
0.0564575
0.0744527
0.0587209
0.106417
0.128927
0.178288
-0.0157347
1.01221
0.853925
0.470156
1.60439
1.67699
1.63282
1.69876
1.72288
1.74844
1.73236
1.67806
1.57122
1.59928
1.55986
1.56983
0.344585
0.206323
0.388378
0.446767
1.00563
1.53312
1.34264
1.25188
1.25139
1.40559
0.75221
0.568691
0.013528
-0.400443
0.262128
0.112275
0.173186
0.419268
0.616141
0.226481
0.295748
0.404625
0.298756
0.282251
0.602191
1.33506
0.690369
0.652083
0.970325
0.887771
0.663873
1.40967
1.4311
1.22659
1.15016
1.35504
1.31955
1.33406
1.33242
1.34523
1.3761
1.21164
1.13352
1.07295
1.48131
1.36544
1.38192
1.36276
1.63034
1.66925
1.61239
1.60066
1.64501
1.57863
1.58782
1.56321
1.62116
1.653
1.64128
1.60764
0.365147
0.308475
0.370858
0.24003
0.327785
0.195428
0.355341
0.493985
0.396108
0.541194
0.71612
0.456328
0.302592
0.393843
0.367832
0.597972
0.53557
0.466895
0.381739
0.434351
0.45212
0.472604
0.449085
0.289374
0.309407
0.373482
0.228822
0.360626
0.332675
0.410512
0.223099
0.299458
0.223044
0.200093
0.276473
0.380094
0.304426
0.350846
0.104984
0.108497
0.00676314
0.0971918
0.288895
0.305006
1.5601
1.53047
1.53979
1.51341
1.56243
1.52519
1.41385
1.598
1.58574
1.54995
1.46244
1.43441
1.44779
1.4458
1.49272
1.47733
1.5849
1.57487
1.49779
1.49615
1.41301
1.45661
1.42104
1.43193
1.42266
0.0163439
0.119052
0.0633053
0.083119
0.10665
0.154115
0.243845
0.136248
0.217397
0.228301
0.187741
0.116916
0.14899
0.354359
0.467503
0.276084
0.114583
0.035626
1.00395
1.04876
0.905843
0.807308
0.875152
0.966581
0.997651
0.757222
0.787106
0.860493
1.16692
1.11114
1.64931
1.63662
1.6374
1.67913
1.63937
0.505036
0.720617
0.705233
0.961692
1.02789
1.04102
0.902111
0.902765
0.94888
0.986769
1.51136
1.54322
1.5075
1.54288
1.53314
1.29718
1.41499
1.39834
1.55179
1.45211
1.45104
1.51804
1.48074
1.40794
1.39764
1.43375
1.40022
1.39549
1.3835
1.37445
1.48821
1.45279
1.48248
1.44318
1.47976
1.42026
1.51623
1.56251
1.53184
1.38326
1.38408
1.41996
1.43497
1.40234
1.41034
1.39994
0.932831
1.01808
0.927481
0.901558
0.934623
0.750177
0.729064
0.888341
0.90355
0.663085
0.517377
0.189947
1.28115
0.59796
0.511579
0.0399988
1.09713
1.1736
1.08354
0.933416
0.954792
1.46234
1.44743
1.47194
1.34898
1.30286
1.25671
1.26264
1.50182
1.22627
1.16645
1.22051
1.01626
1.10475
1.29918
1.2253
1.17171
1.20597
1.41465
1.22951
1.26999
1.37205
1.22488
1.24224
1.35814
1.41451
1.46893
1.41829
1.31773
1.34576
1.3408
1.36235
1.38526
1.37553
1.6021
1.59936
1.59287
1.61405
1.59059
1.59965
1.54596
1.6071
1.63784
1.62976
1.65391
0.232966
0.316763
0.322223
0.243241
0.330112
0.308914
0.390159
0.342221
0.37335
0.42655
0.367629
0.369733
0.403526
0.356632
0.418691
0.446128
0.385878
0.373141
0.674521
0.730517
0.728984
0.713947
0.659138
0.622379
0.686305
0.293655
0.368045
0.333843
0.281336
0.319148
0.198088
0.23158
0.169309
0.287726
0.274754
0.0497589
0.176718
0.206161
0.112206
0.184354
0.199098
1.51441
1.51918
1.49207
1.4815
1.47202
1.50259
1.53584
1.57939
1.57853
1.5601
1.55145
1.54686
1.5472
0.166243
0.288401
0.296423
0.166704
0.157023
0.0588013
0.0485732
0.851216
0.590662
0.619808
0.531797
0.348298
0.436442
1.07183
1.1618
1.16366
1.12832
1.05346
1.02693
1.11686
1.18341
0.898154
0.991484
0.949678
1.02555
1.0651
1.09687
1.02617
0.855538
1.12445
1.27584
0.856415
0.924904
1.07757
1.01735
1.09349
1.05604
1.20445
1.00165
0.967427
0.96095
0.944978
1.04022
1.03041
1.08473
1.13076
0.788781
0.853551
0.807576
1.47379
1.51264
1.52119
1.48344
1.50221
1.50112
1.46622
1.51741
1.54506
1.55578
0.309065
0.497583
-0.0232479
0.573906
0.82102
1.48971
1.18949
1.41307
1.43606
1.0204
1.22058
1.30237
1.302
1.38122
1.27993
1.20292
1.27312
1.22861
1.28932
1.16345
1.13208
1.40755
1.36365
1.41337
1.40611
1.3848
1.42777
1.5431
1.61703
1.53527
1.59511
1.56114
1.59368
0.429024
0.354061
0.40864
0.402935
0.376953
0.324864
0.073373
0.139755
0.299957
0.248764
0.211469
0.236686
0.757178
0.789622
0.586232
0.734022
0.534393
0.384302
0.413083
0.506097
0.62958
0.693034
0.962272
0.97284
1.003
0.999462
0.877052
1.02706
1.15078
1.13085
1.16722
1.0643
1.07715
1.08795
0.663958
0.823916
1.38063
1.69889
1.42468
1.24799
1.018
1.09545
1.421
1.32436
1.33293
1.40651
1.35285
0.957604
0.965527
1.06318
1.08124
1.03485
0.971012
0.941484
1.05966
1.08832
)
;

boundaryField
{
    wall-4
    {
        type            zeroGradient;
    }
    velocity-inlet-5
    {
        type            zeroGradient;
    }
    velocity-inlet-6
    {
        type            zeroGradient;
    }
    pressure-outlet-7
    {
        type            fixedValue;
        value           uniform 0;
    }
    wall-8
    {
        type            zeroGradient;
    }
    frontAndBackPlanes
    {
        type            empty;
    }
}


// ************************************************************************* //
