/*--------------------------------*- C++ -*----------------------------------*\
| =========                 |                                                 |
| \\      /  F ield         | OpenFOAM: The Open Source CFD Toolbox           |
|  \\    /   O peration     | Version:  4.0                                   |
|   \\  /    A nd           | Web:      www.OpenFOAM.org                      |
|    \\/     M anipulation  |                                                 |
\*---------------------------------------------------------------------------*/
FoamFile
{
    version     2.0;
    format      ascii;
    class       surfaceScalarField;
    location    "1";
    object      phi;
}
// * * * * * * * * * * * * * * * * * * * * * * * * * * * * * * * * * * * * * //

dimensions      [0 3 -1 0 0 0 0];

internalField   nonuniform List<scalar> 
1300
(
3.75095
5.62643
-7.03269
3.75095
-6.42035
5.62643
-6.42375
6.42375
-1.44024
1.44024
1.88604
1.86491
-5.83971
5.83971
-5.67713
5.67713
-3.08038
3.08038
-5.34496
5.34496
-5.24142
5.24142
3.91898
-3.91898
-5.34765
5.34765
-2.12983
2.12983
-6.46337
6.46337
3.19874
-3.19874
-5.65627
5.65627
-1.75947
1.75947
-0.515052
4.26601
3.2359
3.2359
-2.7546
2.7546
-5.43323
5.43323
6.18298
-6.18298
9.90825
-9.90825
-2.87556
-3.25723
1.28385
-7.98519
-5.13651
-5.13651
-8.45762
8.45762
-2.83119
2.79524
3.21292
-3.21292
-2.63379
2.63379
-6.15388
-0.269874
-6.15388
6.59529
-0.171533
6.59529
-1.65059
0.210355
-1.65059
4.78217
-4.78217
1.23488
0.205355
1.23488
3.20379
-3.20379
-1.87745
3.76348
1.87351
-1.81118
6.07719
-1.93977
3.80468
-4.94263
4.94263
-5.99424
0.154535
-5.99424
5.87131
-0.0316012
5.87131
-5.55293
5.55293
-5.69151
0.0143756
-5.69151
5.58532
0.0918062
5.58532
3.31583
-3.31583
-3.12959
0.049215
-3.12959
3.08564
-0.0052668
3.08564
0.310223
5.31621
-5.93665
8.7319
-5.31621
-0.0287533
5.32726
0.0176991
5.32726
-5.237
-0.00442316
-5.237
5.19915
0.0422678
5.19915
3.69497
0.224009
3.69497
-4.25372
0.334744
-4.25372
-3.17818
-3.28459
-5.4102
0.062551
-5.4102
-2.19823
0.0683976
-2.19823
2.07607
0.0537625
2.07607
-3.96436
3.96436
-6.65886
0.195491
-6.65886
3.15824
0.0404933
3.15824
1.85087
1.90009
5.60182
-5.60182
2.40308
-5.6633
0.00703446
-5.6633
-5.69252
-4.21573
5.69252
-0.0362569
-1.0947
-0.664763
-1.0947
3.2614
-0.0254991
3.2614
2.94142
0.14422
-2.94142
0.186817
3.71453
-3.71453
2.22421
0.530392
2.22421
-5.56178
5.56178
5.27258
-0.0734249
-5.27258
-0.160647
6.15214
0.0308355
6.15214
-6.12431
-0.0586654
-6.12431
3.28569
-6.54292
-3.32327
5.2286
0.11905
-5.2286
0.0920922
3.22913
-0.016207
3.22913
-3.1891
3.1891
-3.1937
-0.0192201
-3.1937
-2.51232
-0.121474
-2.51232
2.70747
-0.0736802
2.70747
-5.69609
-0.45779
-5.69609
-6.67616
0.017301
6.67616
-0.0808756
3.07193
-3.07193
-1.77914
0.128544
-1.77914
-5.18168
-0.514406
5.18168
-0.399512
-4.5883
-0.193867
-4.5883
-3.2258
0.032098
3.2258
-0.0220065
3.16629
0.0951101
-3.16629
-0.0374997
-1.87526
3.77534
-1.8757
3.74921
-4.70341
-0.239223
-4.70341
5.18346
-0.240829
5.18346
6.33561
0.127762
-6.33561
0.341367
5.71532
0.155986
5.71532
-5.48566
-0.0672635
-5.48566
5.58968
-0.0367554
5.58968
5.6368
0.0785197
-5.6368
-0.0547052
5.73385
-0.148531
5.73385
3.32835
-0.0125143
3.32835
-3.2113
-0.10453
-3.2113
3.17535
-3.17535
3.07521
0.100133
-3.07521
-0.0543786
-11.1635
11.1048
-0.109363
-11.0541
5.2179
5.2179
3.03878
0.65619
3.03878
-4.70767
0.453946
-4.70767
3.30298
-6.62625
3.22866
-6.40685
3.20891
-11.1941
3.41388
-6.69847
5.58038
-5.58038
5.41316
0.16722
-5.41316
0.00296237
-2.1945
-0.0037331
-2.1945
-3.76099
-0.203372
-3.76099
4.3258
-0.361434
4.3258
-3.22503
3.22503
-3.17503
-0.0499971
3.17503
-0.0167862
5.63132
0.102538
-5.63132
-0.0319826
1.08196
0.152926
-1.08196
-0.0127461
3.85914
-0.144617
3.85914
-3.49818
-0.216347
-3.49818
-2.17636
-0.0181319
2.17636
0.0478487
-5.89533
0.333551
-5.89533
-11.1313
0.0771957
-11.1136
-6.04712
-6.04712
2.4105
11.1424
-3.22665
0.0153466
3.22665
0.00247563
3.13115
0.09388
-3.13115
-0.0579553
-3.18456
0.00921111
3.18456
0.00454741
-2.37715
-0.135169
-2.37715
-2.87818
2.87818
-2.82846
-0.0497179
2.82846
-0.120991
3.22235
-0.150423
3.22235
1.96806
0.108006
-1.96806
0.188926
-4.18387
-0.404434
-4.18387
5.25919
-0.0757257
5.25919
-3.40591
-0.0922679
3.40591
-0.0775647
-0.00240938
11.1073
-5.21549
-0.0215101
5.21549
-11.1381
11.1166
-2.487
0.109849
2.487
0.551781
5.14873
0.413055
-5.14873
0.441061
5.53692
0.0527623
-5.53692
-0.0434626
-3.55039
-0.210604
-3.55039
-4.52912
-0.174291
4.52912
-0.203323
-11.2414
-0.169863
11.4112
-11.1991
6.0652
0.0869462
-6.0652
11.2035
-2.90938
-0.162545
2.90938
-0.0312003
3.32683
-0.104484
3.32683
4.12092
-0.261776
-4.12092
-0.0629482
-5.41674
-0.068924
5.41674
-0.157549
-3.50374
-0.0466436
3.50374
-0.176913
-4.19128
4.16578
1.88591
-3.34509
-3.19783
-7.56082
1.82117
1.95418
4.22425
-7.08531
-4.1088
-6.99321
6.83032
-6.38925
-6.70104
6.92505
7.63114
-7.82501
-5.79016
5.77337
6.30391
-6.32592
1.84281
1.92067
10.7569
-10.6024
-10.1238
9.88453
10.0914
-10.077
10.411
-10.4782
-11.9709
12.0237
-5.58514
5.63436
-6.58384
6.47931
-6.64452
6.56695
-3.22015
-3.18669
8.80822
-8.74567
11.5363
-11.5292
-11.1889
11.3844
3.27634
0.889435
3.37145
-1.95669
3.79951
-1.84799
3.7339
3.31269
-6.53285
3.31355
-6.51139
5.92219
5.61406
-5.88593
-1.67488
-5.81975
5.80354
-5.73428
5.73882
11.0024
-11.2723
-1.8483
3.76897
-1.90091
3.85508
-3.37431
-2.41585
3.33382
0.890429
5.4807
3.32752
-5.59975
-1.39346
-7.56505
7.30328
-7.69638
7.48003
-0.0270356
5.56155
-5.53451
5.40619
-1.83945
7.40099
4.99087
5.44481
5.63018
-5.21713
0.75907
-6.29358
-6.45423
-2.3464
2.47494
2.13177
-1.92641
6.54244
1.0887
6.14293
-5.26313
-2.56189
-5.66756
3.81681
1.95656
3.76682
4.02817
2.27574
4.06027
2.98378
-3.07163
0.0878515
-3.027
6.01078
0.697336
-5.44285
-4.55242
6.93191
3.82499
6.90031
-7.37844
-3.22392
-7.03708
-6.14324
-3.98051
-6.31753
6.57792
3.30661
6.33709
-7.73807
7.58052
6.63964
3.45177
6.73144
-6.64061
-3.43643
-6.69531
10.2758
-2.8652
-7.41062
-6.94278
-5.02815
6.97953
3.43142
7.40109
4.6226
7.35763
3.5865
6.68932
-7.01793
1.98978
-3.73451
-1.85063
-3.78889
3.56778
2.06657
3.56252
-4.22184
-2.362
-4.20649
-4.1988
-2.44572
4.21131
2.268
-4.25867
-3.43771
4.35093
2.21602
3.19287
-7.30168
3.50559
-6.69229
-6.20303
-2.54264
-6.20007
4.02891
2.63287
-6.66178
-2.50394
10.6902
-5.07615
9.01533
-7.21745
-4.31177
-7.24943
-8.82673
-2.36215
-8.80943
-5.16643
4.95583
-5.63322
5.27179
10.537
-5.9061
-4.63091
-4.00064
-2.32528
4.03814
-0.666691
-3.63803
3.72589
0.161472
3.89538
4.78481
4.11812
-3.78705
-1.94723
-3.845
3.75806
1.98076
3.76727
8.54088
2.46152
8.36935
-7.60869
-3.66359
-8.06648
5.49164
-5.61312
2.93719
-2.95532
5.09376
2.38627
-4.94914
-2.61591
5.85499
-3.05954
-2.79545
-12.3241
7.92262
4.40144
-4.92306
0.483132
2.2426
-4.64544
-2.0556
4.3107
1.13412
9.05674
7.00113
-5.24747
5.58102
6.16376
6.09034
-0.363893
3.82981
-3.71996
5.93335
-0.864439
-5.06891
5.76456
-6.27896
-2.30193
-5.95881
3.65688
-0.136033
0.114903
-0.779667
-1.94823
-0.398167
-1.7593
1.19569
0.936074
1.34862
1.01336
1.46158
-2.51038
0.254477
2.2559
-1.49702
-1.67194
-3.96379
-0.226263
4.19006
5.49675
1.80652
-5.4338
-0.233755
2.64606
-2.5923
-1.53293
-2.43086
1.23111
-2.76404
-3.06089
-2.17231
5.23321
-3.32077
-0.524236
3.22689
0.53993
-3.78671
-2.03304
3.80593
0.254341
-2.93972
5.97135
-3.03163
-4.88695
2.54535
3.46544
4.50191
-4.61874
2.3132
2.30554
-1.15331
5.8392
1.06111
5.99519
-8.95351
5.72959
7.80849
3.57588
-7.93625
0.89917
-8.05434
9.36417
-8.35579
-1.00838
4.82821
4.53596
5.3222
5.21481
-3.37252
8.69472
-1.24043
-7.11536
9.29477
-5.71889
5.4396
-11.1585
-10.6544
3.53905
-6.72278
8.36367
-1.64089
-2.3832
-5.35487
9.10598
-0.906494
-8.19948
5.4306
-5.09842
-5.40669
10.5051
-7.96362
8.84312
-2.555
-6.28811
-6.53441
-3.94381
6.60333
0.977194
-9.68617
11.6759
-2.99686
5.79037
0.941067
5.64184
3.9303
-5.94387
2.01357
4.03332
-6.58832
2.37554
-8.31941
-4.76575
9.42703
-4.66129
-7.30839
-6.65376
-0.654625
2.04244
9.63351
-6.66504
5.32898
1.33606
3.20592
0.561351
-3.30605
-0.482834
0.326814
4.42344
-4.75025
3.88933
4.03355
3.4717
0.951741
3.78418
2.01936
-3.78666
-0.419834
-3.84497
1.39925
-1.57697
-3.46729
4.86654
-3.92528
0.457989
-2.60578
-3.38972
5.9955
-4.45641
2.86371
3.10764
4.84447
-4.74803
1.35831
-2.35824
-2.38979
2.56697
-4.14394
1.84224
3.0243
4.05826
0.620546
4.62231
4.80473
-7.25518
0.562889
8.13225
-6.73879
1.56741
5.79022
-6.89639
0.242633
-5.95744
1.12454
-6.20069
-5.53724
6.43973
-8.80188
-4.71876
8.10292
0.266434
-8.02204
-0.787384
-3.70182
-1.46461
-3.74846
-1.89285
-3.74037
-5.26537
-1.01209
-4.25329
3.94374
-4.22266
-2.09487
4.42599
0.845798
-4.45578
4.29324
-4.44159
4.33711
0.1421
3.58379
4.26022
1.93494
-2.43048
4.36542
-6.62514
9.08667
-10.6899
4.06478
4.41968
-8.08327
-6.27024
3.38309
2.10855
3.30941
5.58442
-6.93614
1.35173
-6.27959
7.26349
-0.983893
-9.78656
3.50697
-4.20214
2.59951
0.337684
2.59577
0.685886
2.25545
-2.94133
-2.26944
-2.22159
-2.21415
-3.26503
5.47918
0.960868
-3.21059
2.24972
-3.28918
4.25005
-0.174958
-3.03563
4.93693
-2.68149
5.27462
-3.46414
1.81048
3.1735
5.24978
-2.07628
4.11298
-1.72671
1.76796
-3.84424
-1.49707
-2.90634
4.97291
-3.08916
3.54715
-0.222658
3.76981
-3.9753
0.915759
-0.5036
3.52995
3.71677
3.96978
-3.01804
2.66991
-4.39662
-1.17433
-3.77607
-0.751773
-0.849635
-5.04418
5.89382
4.84828
-5.69791
-2.78084
5.52974
-2.74889
4.69932
-3.31568
-1.38365
-2.76221
-2.85091
2.89738
0.932428
5.63175
0.314646
-3.63032
-3.40531
-2.85353
4.69846
1.23489
-0.970976
5.37241
-1.27162
1.38653
0.523073
0.825546
1.14515
-0.622077
-0.033133
1.17828
-0.8128
1.89103
0.755033
-1.99903
0.239729
-1.72741
2.95853
0.528485
-1.46456
0.842483
2.32783
-3.19226
4.78859
-1.54445
-3.24414
7.11642
1.8405
-3.38496
4.1183
-4.25434
2.79016
-3.01642
-0.594798
-4.84914
-3.76043
-2.15552
4.40524
-3.32366
5.13018
1.34435
-4.89643
6.24077
-3.45763
1.28532
-2.67477
3.4298
-0.792413
-1.88236
2.50284
2.73037
-2.79847
0.367603
-0.295626
1.99074
-2.28637
-0.773302
-2.27032
-4.44816
4.7025
-2.19301
4.50621
2.17241
-1.9362
6.44241
1.78239
-3.71859
-3.10456
-3.62879
-1.41304
3.08886
-0.7488
-5.94651
-7.03691
5.86799
0.1272
-9.00143
10.0614
-1.05996
-5.17644
-0.55315
5.38136
-7.24099
0.652666
-4.86545
5.19594
6.25705
6.38425
-8.0656
-0.133882
-4.75899
1.23682
-5.99582
5.77278
-2.77802
6.31707
-6.7625
4.66763
-5.9167
5.30869
-0.687124
5.27802
-3.26446
2.13259
-6.07641
-5.09921
6.95527
-3.50349
7.89633
-4.00476
11.9011
-7.00162
7.04755
4.85355
-1.28666
-5.96277
-6.82915
5.5425
0.218392
5.86024
4.86251
-2.84315
4.44268
2.06326
-4.4215
-2.08068
-6.34472
1.92322
-3.23708
-1.71212
3.63534
3.13235
3.6937
1.24555
-3.21086
6.61987
-7.2745
-1.95859
-3.57865
6.78524
-1.24274
3.72722
-7.30587
-2.47347
5.12663
-0.534599
-4.59203
0.779468
-5.49823
2.53526
-8.0335
6.26661
-7.054
1.22508
-5.42722
-3.2307
-3.2619
-1.2901
-3.1515
-4.49828
3.20819
-0.991319
3.30192
-5.39183
4.85723
-1.87165
5.07984
-3.31884
-0.429625
3.49575
0.841359
5.9212
-0.411073
-5.85917
-1.52932
5.67451
-4.14519
3.16914
-5.45526
0.219252
3.52233
3.59409
-7.17921
-0.904057
-6.76322
-2.38327
4.49182
3.14646
7.99474
1.0586
4.98922
-0.497397
6.04782
2.81201
2.69102
-3.81325
5.16497
2.08057
6.14535
-0.808024
2.6185
1.78775
1.85615
0.736149
2.21483
1.50194
3.13059
0.189253
-2.03234
3.09184
-5.94537
-0.538477
-5.28918
1.63586
4.01815
-2.38228
4.74902
-3.51414
0.60384
2.71779
-1.76836
-0.949433
-2.35112
-0.381831
0.796453
-1.06564
1.90813
1.89288
-2.70458
0.353463
-0.0766641
-3.68377
3.09309
-2.72548
0.00488287
6.24566
-2.33895
0.0525771
-1.05362
-2.21774
-2.61591
2.37618
6.02104
0.421364
2.98941
5.12386
3.09082
0.247667
4.23425
-5.87514
-4.08516
-6.00902
-0.236239
5.14512
1.73966
7.89384
6.59321
5.35047
-1.9554
-9.2299
7.31791
-2.15294
6.33402
-1.74198
-6.29151
6.50321
2.58346
-6.76964
-0.284358
-6.57587
-8.72881
-0.32475
5.18198
-5.59645
5.16683
3.70221
0.551073
-2.75869
-0.50321
2.80841
-0.117388
5.93043
-1.10044
-5.52769
6.62813
-2.91771
2.37923
5.11007
0.262341
4.16064
0.6465
-4.88119
-7.26347
-1.11783
-2.07443
-4.36197
-0.171912
-1.72097
3.94486
-1.56563
2.56122
5.0625
5.66634
-1.60079
-4.09713
4.34968
-1.78846
3.87788
)
;

boundaryField
{
    wall-4
    {
        type            calculated;
        value           uniform 0;
    }
    velocity-inlet-5
    {
        type            calculated;
        value           uniform -3.75095;
    }
    velocity-inlet-6
    {
        type            calculated;
        value           uniform -5.62643;
    }
    pressure-outlet-7
    {
        type            calculated;
        value           nonuniform List<scalar> 8(7.03269 6.42035 6.13279 6.70134 6.46277 6.60896 6.53164 6.62279);
    }
    wall-8
    {
        type            calculated;
        value           uniform 0;
    }
    frontAndBackPlanes
    {
        type            empty;
        value           nonuniform 0();
    }
}


// ************************************************************************* //
