/*--------------------------------*- C++ -*----------------------------------*\
| =========                 |                                                 |
| \\      /  F ield         | OpenFOAM: The Open Source CFD Toolbox           |
|  \\    /   O peration     | Version:  4.0                                   |
|   \\  /    A nd           | Web:      www.OpenFOAM.org                      |
|    \\/     M anipulation  |                                                 |
\*---------------------------------------------------------------------------*/
FoamFile
{
    version     2.0;
    format      ascii;
    class       volVectorField;
    location    "1";
    object      U;
}
// * * * * * * * * * * * * * * * * * * * * * * * * * * * * * * * * * * * * * //

dimensions      [0 1 -1 0 0 0 0];

internalField   nonuniform List<vector> 
918
(
(0.83538 -0.200689 0)
(0.0194281 2.97259 0)
(-0.17575 1.79841 0)
(0.70266 0.21225 0)
(0.0426929 1.72619 -4.30691e-20)
(-0.0775108 2.88342 -6.31634e-19)
(1.13844 1.76495 8.96962e-20)
(0.477154 0.283448 -1.17709e-20)
(0.912986 0.00256127 0)
(0.0395771 1.78244 0)
(0.0156383 1.74126 0)
(0.943416 0.011694 0)
(-0.0660965 3.01673 0)
(0.0139487 2.93045 0)
(-0.0937714 2.70584 5.10543e-20)
(-0.0180343 1.71906 -4.54505e-20)
(0.68634 0.16026 9.53071e-19)
(0.234148 2.05912 9.50891e-20)
(0.991183 0.0100016 0)
(0.0325194 1.73264 0)
(0.794463 0.18278 -2.49317e-21)
(0.72255 -0.0655343 0)
(0.871923 0.00094295 0)
(1.03689 0.0543338 0)
(0.853813 0.0524108 0)
(0.0128181 3.00621 0)
(-0.0262396 2.87689 2.03633e-19)
(-0.15568 1.73498 0)
(-0.0434569 1.66851 0)
(-0.197323 1.72019 0)
(0.0455626 1.7394 0)
(-0.049694 1.69221 3.33295e-20)
(-0.0328977 1.72226 0)
(-0.0418756 3.0102 -1.75795e-23)
(-0.0260766 2.96871 5.1879e-19)
(0.0135187 3.01287 0)
(0.982522 -0.00545882 0)
(0.816658 1.26729 2.4766e-19)
(1.15704 1.67526 7.3304e-20)
(1.26611 1.55144 -3.99212e-21)
(0.971049 1.87954 -2.20473e-20)
(0.936506 1.94082 1.60983e-19)
(0.529085 0.302038 1.13791e-20)
(0.539247 0.282811 0)
(1.36925 0.784371 0)
(0.465837 0.31765 4.76329e-20)
(0.420662 0.288735 -4.94618e-20)
(0.981829 -0.0161787 0)
(1.03147 -0.00164495 0)
(0.916973 -0.00836436 0)
(0.967173 -0.0945509 0)
(1.00714 -0.0111157 0)
(0.958652 0.00860028 0)
(0.0093858 1.61128 -4.6022e-19)
(0.0350983 1.82811 0)
(0.0345606 1.82826 0)
(-0.0205591 1.7996 0)
(-0.0145248 1.8008 0)
(-0.00342155 1.71726 0)
(0.0230222 1.75902 0)
(0.0122342 1.74446 0)
(-0.00160828 1.74606 0)
(-0.00930036 1.70535 0)
(1.01168 0.0015246 0)
(0.964164 0.0224891 0)
(0.958065 0.00340942 0)
(0.951076 -0.00651909 0)
(0.943338 -0.00222011 0)
(0.00486079 2.98476 2.12287e-19)
(0.0249573 2.95317 0)
(-0.0131302 2.96584 0)
(-0.0598026 3.04347 1.52448e-24)
(-0.0543256 2.93485 -3.23565e-19)
(-0.0257528 3.03995 0)
(0.0165108 2.96731 0)
(0.0216885 2.97778 3.37689e-25)
(0.012397 2.93008 0)
(0.0555106 2.99519 0)
(0.0940304 2.89458 0)
(0.130059 2.82749 0)
(-0.128753 2.85363 0)
(-0.0159575 2.75821 -4.70899e-20)
(-0.133469 2.66326 0)
(-0.00254277 1.7319 0)
(-0.0139348 1.73908 4.48288e-20)
(0.000950853 1.71209 -4.99208e-20)
(0.723665 0.163251 -3.30356e-19)
(0.727404 0.147184 -3.23341e-19)
(0.692494 0.218913 -9.83829e-19)
(0.661914 0.202908 -6.26996e-19)
(0.19443 1.3908 0)
(0.349402 2.11516 -1.06059e-19)
(0.46563 2.09819 1.90532e-19)
(0.990174 -0.00592788 0)
(0.965953 0.000421076 0)
(0.924533 -0.0046465 0)
(1.01896 0.0296107 0)
(0.938595 0.0603026 -3.51725e-18)
(0.99643 0.0946041 2.6514e-18)
(0.0185541 1.7579 0)
(0.0127408 1.73238 0)
(0.0141453 1.71066 0)
(-0.0193275 1.7428 0)
(-0.0171399 1.75485 0)
(0.833571 0.155993 3.28479e-20)
(0.387405 0.357278 0)
(1.02194 0.0300892 0)
(0.991377 -0.00129262 0)
(0.941446 0.0303964 0)
(0.88922 0.0921961 0)
(0.888937 0.0142463 0)
(1.14071 -0.0106291 0)
(0.837688 0.029485 0)
(0.816895 0.0235249 1.5316e-18)
(-0.0558635 2.87975 1.2951e-19)
(-0.0176385 2.97959 0)
(-0.0554975 3.06972 0)
(-0.0131036 2.93244 0)
(-0.00623644 2.95815 1.82692e-19)
(0.0382141 2.90351 0)
(-0.00364746 2.96651 -5.80488e-19)
(-0.0713481 2.912 1.96762e-19)
(0.0360773 1.74179 0)
(-0.00761697 1.75112 0)
(-0.00747675 1.73132 -1.6365e-21)
(-0.045716 1.74491 0)
(0.0305266 1.70219 0)
(1.00063 0.00129468 0)
(0.989082 -0.018365 0)
(0.97379 -0.00267661 0)
(0.997316 -0.00531366 0)
(0.974059 0.0197582 0)
(0.901999 1.32131 -3.09056e-19)
(0.877261 1.22677 0)
(0.815688 1.33418 3.83951e-20)
(0.776872 1.23936 0)
(1.21033 1.43662 1.69833e-20)
(1.35896 1.26216 -7.45204e-20)
(0.57116 2.11231 0)
(0.793724 2.0214 0)
(0.716818 2.05057 0)
(0.540636 1.2628 -2.32395e-19)
(0.564323 0.303391 0)
(0.569343 0.250278 1.67545e-19)
(1.23062 1.21243 0)
(1.26624 0.954708 0)
(1.3749 1.01419 1.51706e-19)
(1.32502 0.752502 0)
(1.38153 0.614684 3.41499e-20)
(0.989895 0.0218069 0)
(0.994065 -0.00943308 0)
(0.989423 -0.00917044 0)
(0.996997 0.00445288 0)
(0.993057 -0.0261897 0)
(0.963287 0.011988 0)
(1.01404 0.00640239 0)
(0.977585 -0.00268486 0)
(0.925459 0.00797798 0)
(0.000819584 1.62116 2.40288e-19)
(-0.00792778 1.55828 0)
(0.0257766 1.66636 4.36059e-19)
(0.0314909 1.66741 -3.88286e-19)
(0.11941 2.02295 -7.46873e-20)
(0.015038 1.91931 0)
(0.0343363 1.95124 0)
(-0.00879003 1.80278 0)
(-0.00251536 1.74819 0)
(-0.0203014 1.72711 -1.8969e-21)
(-0.0201534 1.7098 0)
(-0.00010604 1.74411 -1.17781e-19)
(0.00507983 1.72775 2.22303e-19)
(0.031828 1.7552 0)
(0.0200819 1.75546 0)
(0.00398393 1.72021 0)
(-0.000325274 1.74953 0)
(-0.00702415 1.75522 0)
(1.0316 0.0118388 0)
(1.01648 0.00325248 0)
(1.0091 0.00687443 0)
(0.979186 -0.0112052 0)
(0.970405 -0.0077841 0)
(0.9756 0.00516809 0)
(0.962983 0.016382 0)
(0.935201 -0.00140774 0)
(0.0332993 3.07275 -1.72472e-21)
(0.0571618 3.04686 0)
(0.0509109 3.00462 0)
(0.027926 2.92597 0)
(0.659081 3.03566 0)
(0.958375 2.41108 1.81998e-19)
(-0.0496061 2.83092 0)
(-0.0591849 2.74958 0)
(-0.00526647 1.79148 0)
(-0.0180729 1.6881 0)
(-0.0019694 1.73997 0)
(0.050193 1.74589 -6.90842e-21)
(0.0140911 1.79091 0)
(0.0342956 1.77273 0)
(0.0307014 1.73108 1.69481e-20)
(0.0144598 1.75436 7.10384e-20)
(-0.0062118 1.72543 5.11247e-20)
(0.012464 1.68729 0)
(0.752704 0.149142 5.21166e-19)
(0.744641 0.0844958 -5.11232e-19)
(0.206374 1.42091 0)
(0.241482 1.35135 -1.37911e-19)
(0.145145 1.49208 -4.25725e-19)
(0.103071 1.48002 4.25225e-19)
(0.987434 -0.0104347 0)
(0.987422 -0.0215279 0)
(0.983681 0.000128268 0)
(0.967881 0.0094775 0)
(0.00651997 1.76733 0)
(0.0275083 1.74508 0)
(0.00701497 1.72505 0)
(0.43153 0.293359 4.05352e-19)
(0.477898 0.263675 -3.88581e-19)
(0.384437 0.293091 0)
(1.19281 0.0970335 5.1477e-20)
(1.23947 0.0376224 0)
(1.12153 0.0511691 0)
(1.06599 -0.00352116 0)
(0.77537 0.0988151 0)
(0.817104 0.0612358 -2.44441e-18)
(0.759411 0.0522489 9.10929e-19)
(-0.0194865 2.98667 1.18489e-19)
(0.0562687 2.932 7.15279e-21)
(0.078691 3.01652 -4.55113e-21)
(0.0898686 3.02713 1.09687e-19)
(-0.0728079 2.94153 8.75631e-21)
(-0.177224 2.89851 -2.65568e-23)
(-0.0705061 3.08555 -1.00101e-19)
(0.0899849 3.04492 7.21006e-20)
(0.0970282 3.07487 -1.17092e-19)
(1.00881 -0.00186272 0)
(0.991173 0.0382106 0)
(0.981414 0.0291142 0)
(0.990074 -0.00884271 0)
(0.978877 -0.0015137 0)
(0.954459 -0.00150585 0)
(0.981142 -0.0119226 0)
(0.990856 0.011221 0)
(0.974591 0.00815586 0)
(0.966538 1.29043 -2.56645e-19)
(0.890751 1.26222 0)
(0.665387 1.24047 6.98442e-20)
(0.692804 1.33184 5.38955e-19)
(0.773853 1.32663 -3.26429e-19)
(0.725672 1.26069 6.26989e-19)
(0.509714 1.32441 1.13138e-18)
(0.505107 1.27556 2.09685e-19)
(0.664139 0.239227 6.59589e-19)
(0.613812 0.275642 1.67916e-19)
(0.62595 0.234963 3.18829e-19)
(1.28193 0.552136 -2.75192e-19)
(1.33509 0.371515 -3.22237e-19)
(-0.000749163 1.69763 1.80623e-19)
(0.000139347 1.66647 0)
(1.07441 0.0221309 0)
(1.04678 0.011752 0)
(1.03689 -0.0019271 0)
(0.0238414 3.07192 0)
(-0.00996387 2.9851 2.17119e-19)
(-0.0113212 2.97629 0)
(-0.0277101 2.90243 -2.27202e-19)
(-0.00256929 3.06369 5.00156e-20)
(0.0183066 3.06845 0)
(0.895608 1.34859 2.60156e-20)
(0.936718 1.70399 -1.84767e-19)
(0.732984 1.44471 -2.43224e-20)
(-0.0447489 2.92535 -1.18675e-19)
(-0.0355681 2.86376 0)
(-0.0652294 2.82505 0)
(-0.0152185 1.75155 -7.5558e-21)
(0.0241099 1.73005 -1.87233e-19)
(-0.0383742 1.70613 -1.40586e-21)
(0.252028 1.37691 4.4346e-19)
(0.271449 1.31615 -3.01038e-19)
(0.0161889 1.60549 3.28272e-19)
(0.0765636 1.54836 -3.7248e-19)
(0.0597468 1.5299 2.70449e-20)
(-0.0792907 3.07309 -1.98835e-19)
(-0.0644065 3.08627 2.42927e-19)
(0.0152804 2.97179 1.28945e-19)
(0.0567863 2.98472 -1.23596e-19)
(0.0756155 2.93283 -1.31345e-19)
(0.00419609 3.05463 -3.71491e-19)
(-0.0477042 3.0426 3.94587e-19)
(0.53825 1.29951 0)
(0.593458 1.32599 -1.14688e-18)
(0.562847 1.22818 5.10049e-19)
(0.426802 1.35741 5.98822e-19)
(0.426437 1.29236 -9.36799e-19)
(1.25097 0.191639 1.91524e-19)
(1.30288 0.362737 0)
(1.32529 0.249133 -1.72087e-19)
(-0.00353872 1.73195 -2.18948e-21)
(-0.00887724 1.70233 0)
(0.01891 1.6944 0)
(0.298866 1.3884 -1.57023e-19)
(0.361666 1.35787 -3.59444e-19)
(0.382751 1.33312 6.69375e-19)
(0.97632 -0.0247538 0)
(1.01948 -0.0634932 6.57833e-19)
(0.036989 1.74883 0)
(-0.028103 1.74868 0)
(1.04587 -0.015459 1.422e-20)
(0.912349 -0.00185483 1.35614e-18)
(0.0147646 1.79531 9.12587e-21)
(0.0756012 1.81071 0)
(-0.0754798 2.95053 1.02268e-19)
(-0.0519507 2.56559 0)
(1.17633 0.643348 -1.79176e-19)
(1.02257 -0.014121 -9.3704e-21)
(0.988513 0.0364924 0)
(0.988584 0.000704319 -2.49832e-21)
(0.0414134 1.88526 0)
(0.129917 1.71647 0)
(-0.0314352 1.77686 0)
(0.0754904 1.77291 1.26516e-19)
(-0.00161255 1.7683 9.07646e-20)
(0.986546 -0.00561808 5.83604e-21)
(1.03432 0.07263 0)
(1.05958 0.0427288 0)
(-0.0156402 1.71232 0)
(0.0332559 1.75237 0)
(-0.0325162 1.76249 0)
(0.230542 1.94803 5.22172e-20)
(0.983533 -0.0677434 0)
(0.9928 -0.0554536 0)
(0.96402 0.0332726 8.37489e-19)
(1.00395 0.029615 -9.94282e-19)
(1.07199 -0.0575456 0)
(0.00618336 1.73356 0)
(0.0143507 1.7307 0)
(-0.00512586 1.76575 0)
(-0.012759 1.78788 0)
(-0.0475246 1.76967 0)
(0.00253166 1.73203 0)
(1.00375 0.00932096 0)
(1.01737 -0.0171364 -2.37842e-21)
(0.858547 1.66814 -3.60485e-20)
(0.963622 -0.0570189 -8.34626e-19)
(1.04431 0.0306151 9.98901e-19)
(1.06936 0.0221973 0)
(0.981983 -0.000423751 8.05695e-19)
(1.01749 0.0635161 -9.996e-19)
(0.997524 0.0281345 0)
(0.0245187 1.7711 0)
(0.0496383 1.76834 5.91927e-20)
(-0.0123474 1.74443 -4.24198e-20)
(1.13803 0.282466 1.08307e-18)
(1.08502 0.0792705 0)
(-0.256338 2.99362 -1.88864e-19)
(-0.0607842 3.13625 -7.39795e-21)
(-0.120282 2.96319 4.12137e-19)
(-0.033344 2.94077 -3.83632e-20)
(-0.0308483 2.91482 0)
(-0.0541396 2.95817 5.50263e-20)
(-0.0707645 3.07057 1.75118e-19)
(-0.0700317 3.01032 -1.0264e-19)
(-0.0931835 3.0736 0)
(0.637195 0.281345 0)
(0.490311 0.344315 0)
(1.07924 0.811972 5.27108e-19)
(1.14977 0.939611 -6.61009e-19)
(1.1121 0.586739 0)
(1.12614 0.609514 0)
(1.02355 0.0128181 -1.51029e-18)
(0.980168 -0.00475863 1.91668e-18)
(1.02697 -0.0519078 0)
(1.00946 -0.0471621 0)
(0.940905 0.0553609 0)
(1.02646 -0.0229089 0)
(1.01072 0.0156099 0)
(1.00277 -0.0427907 0)
(1.00705 -0.0842894 0)
(0.967669 0.00317579 0)
(0.0371745 1.87535 0)
(0.00809862 1.81267 0)
(0.120551 1.85847 0)
(0.172445 1.90564 0)
(0.0978897 1.65656 0)
(0.0293394 1.68077 -2.32866e-19)
(0.126618 1.71799 0)
(0.058369 1.68566 1.52149e-19)
(0.0844898 1.75489 -1.72192e-19)
(-0.0155005 1.79391 0)
(0.0549124 1.75029 0)
(-0.0354204 1.7671 0)
(-0.0510989 1.76055 0)
(-0.0132519 1.73839 -8.06276e-20)
(-0.0588786 1.76597 1.43236e-19)
(0.0673759 1.78484 1.31474e-19)
(0.0161601 1.76607 0)
(0.00972321 1.7589 -2.30969e-19)
(0.0134454 1.73467 -1.38965e-19)
(0.016479 1.77952 5.87177e-20)
(-0.108279 1.67225 -1.79752e-19)
(0.0662316 1.72719 -1.63237e-19)
(0.987941 -0.0153768 1.36766e-18)
(0.988911 -0.049476 -1.74551e-18)
(0.985136 0.0268767 -1.40339e-18)
(0.917537 0.0049992 1.79902e-18)
(1.04744 0.0488595 0)
(1.0462 -0.00744351 0)
(1.04697 0.023698 0)
(1.05785 0.0115909 0)
(1.03484 -0.00831823 0)
(1.0857 0.0603834 0)
(1.06809 0.0359474 0)
(1.05949 0.0270666 0)
(-0.149566 1.72299 -4.24195e-21)
(0.0444479 1.75678 0)
(-0.0340493 1.7337 0)
(0.0236742 1.74967 3.41478e-20)
(0.0398644 1.7819 -1.53302e-21)
(0.000433611 1.80582 2.93255e-20)
(-0.0468619 1.72819 -2.91202e-20)
(-0.0381515 1.75968 0)
(-0.0297574 1.76318 0)
(0.0614554 1.7219 0)
(-0.0329834 1.76251 0)
(-0.057902 1.79309 0)
(0.408905 1.90849 -1.52668e-19)
(0.448869 2.00153 -1.14223e-20)
(0.307577 1.46185 -1.08008e-19)
(0.23021 1.58173 2.93745e-19)
(0.316523 1.72784 7.84782e-20)
(1.02766 0.0181544 0)
(0.994176 0.018881 0)
(1.02933 0.0553198 0)
(0.966662 -0.0363835 0)
(1.00773 0.001964 0)
(0.949109 0.0359098 0)
(0.981943 0.0923 0)
(0.994055 0.0752505 0)
(0.993795 -0.0257504 1.452e-18)
(1.00748 -0.0308435 -1.85799e-18)
(1.01126 0.00942253 -1.43072e-18)
(0.980566 0.0199842 1.82625e-18)
(0.862765 1.68882 0)
(0.799791 1.72731 -1.11995e-19)
(0.895483 1.56403 -1.45501e-19)
(0.993811 1.50555 1.93632e-19)
(0.869829 1.53691 1.06127e-18)
(0.851761 0.106908 5.86614e-19)
(1.10468 0.0927475 0)
(1.15461 0.221308 -8.82902e-19)
(1.13041 0.0995225 -3.69377e-20)
(0.962671 0.129422 0)
(-0.605382 2.81104 2.65027e-19)
(-0.364954 2.78969 -3.1019e-19)
(-0.382231 3.13222 9.93358e-20)
(-0.296973 1.36609 7.55509e-20)
(-0.127128 2.72469 5.67545e-20)
(-0.00333623 2.90849 0)
(0.0447332 2.76257 -7.44173e-20)
(-0.537368 2.79403 -6.53094e-19)
(-0.559355 2.64702 0)
(-0.0543968 3.02237 7.31075e-21)
(-0.0786139 3.05961 -1.13983e-19)
(-0.0596474 3.05056 1.74895e-19)
(-0.0505379 3.08395 0)
(-0.0731165 3.00313 0)
(1.03089 1.79227 0)
(0.219891 1.06142 -4.82338e-19)
(1.10274 1.17063 2.09662e-19)
(0.928872 1.40259 0)
(0.794953 1.15506 -2.13849e-19)
(1.03304 1.10995 2.23426e-20)
(0.259244 -0.136398 -2.97348e-19)
(0.641375 0.283808 -5.96073e-21)
(0.634424 0.31199 3.58098e-19)
(0.462048 0.386261 2.08512e-20)
(0.409549 0.325646 -7.98125e-19)
(0.586236 0.388058 0)
(0.593522 0.453323 5.72136e-19)
(0.585571 0.37084 0)
(0.479657 0.381763 0)
(0.52152 0.353555 0)
(0.59922 0.72596 4.74569e-19)
(1.18437 0.251605 -8.74953e-19)
(1.16349 0.431267 0)
(1.21238 0.287794 0)
(0.758834 0.209777 5.62013e-19)
(0.629216 0.657079 -3.62049e-19)
(0.559704 0.526434 6.80794e-19)
(0.836456 0.396014 -8.00587e-19)
(0.995164 0.00244553 1.00299e-18)
(1.00404 0.0875349 -1.02671e-18)
(1.00409 0.0598736 0)
(1.0286 -0.0201853 0)
(1.01219 -0.0361806 -9.54803e-19)
(1.01354 0.0184395 9.46947e-19)
(0.978662 0.0315259 0)
(0.963405 0.00037096 0)
(1.01403 -0.00896079 0)
(0.995707 -0.0150477 0)
(1.01493 -0.0101546 0)
(0.973764 -0.0323485 0)
(0.0680685 1.80681 0)
(0.0972494 1.80045 0)
(0.0855323 1.81224 -1.52091e-19)
(0.229286 1.95048 -4.50992e-20)
(0.206477 1.92534 -1.24526e-19)
(0.154638 1.93609 1.87098e-19)
(0.0409355 1.78003 0)
(0.222852 1.72603 -2.04747e-19)
(0.0871522 1.79221 0)
(0.298726 1.70661 -1.11493e-19)
(0.243179 1.59956 3.92875e-19)
(0.236159 1.74285 1.81145e-19)
(0.187586 1.8443 -7.28807e-20)
(0.150882 1.7695 5.86388e-20)
(0.215212 1.81147 -2.34074e-19)
(0.210701 1.73246 0)
(0.236906 1.70043 1.74906e-19)
(0.027651 1.69569 -7.73768e-20)
(0.037068 1.71205 0)
(0.0039182 1.72082 1.93967e-19)
(-0.0189671 1.71036 0)
(0.0200334 1.71131 -1.72045e-19)
(-0.00346242 1.69286 0)
(0.0360851 1.74398 -1.0414e-19)
(0.0771348 1.7515 0)
(0.0626991 1.74032 0)
(0.0329053 1.78737 1.19546e-19)
(0.0218775 1.72965 1.17101e-20)
(0.0682717 1.76287 2.06716e-19)
(0.0128953 1.71536 1.84926e-21)
(0.103641 1.67091 4.62967e-20)
(0.0552492 1.66705 3.74358e-20)
(0.0148065 1.74243 0)
(-0.0820585 1.75673 0)
(-0.0122894 1.74892 1.64002e-19)
(-0.0578631 1.76395 1.93849e-19)
(0.0109567 1.79352 -2.3276e-19)
(0.00709092 1.75631 0)
(0.0414577 1.73769 -1.46287e-19)
(-0.0593094 1.7084 3.14869e-20)
(-0.0183292 1.80018 -7.36924e-21)
(0.108545 1.79855 -5.4872e-20)
(0.0427636 1.6873 -3.73196e-20)
(-0.0186183 1.72144 1.70823e-19)
(0.990395 0.0425502 -9.81735e-19)
(0.99296 -0.053254 9.39968e-19)
(0.992632 0.0496798 0)
(0.962243 -0.0384393 1.28828e-18)
(0.915248 0.110261 -1.42901e-18)
(0.945212 0.0510138 1.55559e-18)
(0.965697 -0.00576746 -1.6458e-19)
(1.04451 -0.0608927 0)
(1.02717 -0.0164698 9.26782e-19)
(1.01754 -0.0446353 -9.21685e-19)
(0.978232 0.0065022 -5.24572e-20)
(0.991682 0.0477479 4.37333e-19)
(0.964076 0.0704759 0)
(0.978487 0.0791848 -1.57266e-19)
(0.983125 0.0339635 0)
(0.978635 0.0546209 0)
(1.02413 0.0765115 0)
(0.973621 0.0130231 0)
(1.01395 0.0561494 3.24787e-19)
(1.02855 0.0203932 -7.28266e-19)
(0.985535 -0.00697935 -3.43092e-19)
(1.01066 0.0105215 -3.82223e-19)
(1.03939 0.0502217 7.42919e-19)
(1.01504 0.0531133 0)
(1.0047 0.0277439 0)
(0.0361618 1.80672 -2.66772e-20)
(0.114855 1.70262 -7.33176e-21)
(0.0285639 1.69493 0)
(0.0366911 1.79445 2.72431e-20)
(-0.0952348 1.71746 1.12517e-20)
(0.0185025 1.72574 -1.48672e-20)
(-0.0622578 1.77076 1.26639e-19)
(0.0310681 1.76521 -6.47333e-21)
(0.111783 1.7301 3.28117e-20)
(-0.046566 1.77054 -5.83183e-20)
(-0.0791495 1.77832 7.09146e-20)
(0.0192889 1.72096 -7.43549e-21)
(-0.024922 1.75943 9.14402e-20)
(0.472859 1.80004 9.79784e-20)
(0.387292 1.75987 2.62923e-19)
(0.755939 1.78645 1.07917e-19)
(0.595999 1.92274 1.0977e-20)
(0.651277 1.93347 0)
(0.270424 1.46218 1.27492e-19)
(0.2706 1.42826 1.59902e-19)
(0.221798 1.50782 2.19016e-20)
(0.342753 1.53125 -4.59628e-19)
(0.343088 1.48315 3.98527e-19)
(0.286544 1.48272 0)
(0.184438 1.48212 -2.58364e-19)
(0.0788635 1.62077 6.00893e-19)
(0.165853 1.62139 3.08276e-21)
(0.0413057 1.57587 -7.79426e-19)
(0.623386 1.40086 7.00629e-19)
(0.461109 1.4474 0)
(1.00939 0.0786418 3.20048e-20)
(0.997995 -0.0724329 -2.73077e-20)
(0.978713 -0.0953842 -4.92253e-19)
(1.02405 0.0103882 4.92431e-19)
(0.997516 0.0494237 0)
(0.796337 1.60237 0)
(0.760211 1.57233 0)
(0.902218 1.34332 0)
(0.638609 1.41769 0)
(0.859509 1.5303 -8.58636e-22)
(0.833322 1.51311 0)
(0.57852 1.49205 5.8033e-21)
(0.468477 1.48778 0)
(0.569405 1.48857 -5.07275e-19)
(0.557267 1.47474 3.31301e-19)
(0.823193 0.123218 0)
(0.778394 0.122637 1.55659e-19)
(0.883676 0.102872 9.61824e-19)
(0.840215 0.0957894 -3.46421e-19)
(0.845472 0.118621 -1.09194e-18)
(1.03921 0.188781 -1.11889e-18)
(0.840789 0.335146 -1.97305e-20)
(0.879679 0.233116 8.5426e-19)
(0.924737 0.160648 8.40091e-19)
(0.863395 0.170437 -1.30337e-18)
(0.868704 0.257094 1.57339e-19)
(0.759731 0.281386 -3.85558e-19)
(0.812233 0.253607 0)
(0.949989 0.121753 6.40495e-19)
(0.983055 0.176924 0)
(0.944311 0.188532 0)
(1.03045 0.166308 3.6765e-19)
(0.968003 0.257546 -4.95849e-21)
(0.923593 0.15669 -2.07851e-19)
(1.00511 0.144146 0)
(0.999603 0.0551523 7.20641e-19)
(0.973198 -0.020818 8.95014e-19)
(1.0255 0.0543345 -6.96143e-19)
(0.997295 0.0887755 -6.02228e-19)
(0.94824 0.00181149 -9.13656e-19)
(0.925814 0.180446 0)
(0.962759 0.0227904 0)
(0.907417 0.0800321 -5.48899e-19)
(0.889133 -0.00933114 2.05027e-19)
(1.0079 0.108482 8.06383e-19)
(1.02383 0.112265 -1.03657e-18)
(0.955038 0.116577 9.06452e-19)
(0.918039 0.15911 0)
(0.994429 0.123486 0)
(0.948033 0.068634 -4.1735e-19)
(0.978019 0.0692282 -6.64268e-19)
(0.639112 1.5154 2.45685e-19)
(0.61619 1.56568 -2.69778e-19)
(0.753667 1.57469 -3.71857e-19)
(0.740712 1.77174 9.43759e-20)
(0.90935 1.5965 -9.67028e-19)
(1.04804 1.75279 2.61791e-19)
(1.05347 1.61325 -2.25442e-20)
(0.868895 1.69632 -3.98561e-19)
(0.820205 1.66661 5.95057e-19)
(0.895543 2.04354 1.16062e-19)
(0.998221 2.00287 -1.13878e-19)
(0.992288 2.01198 0)
(0.361318 1.31563 -5.35127e-20)
(-0.825506 1.77532 1.65252e-19)
(-0.291918 0.245598 2.50736e-19)
(-0.380136 0.577565 -2.82381e-20)
(0.361426 0.370656 4.52244e-19)
(0.308134 0.349266 -8.08993e-19)
(0.26687 0.357437 6.38515e-19)
(0.257596 0.289663 -1.66461e-19)
(0.35492 0.224445 4.1979e-19)
(0.734696 0.283896 -3.30356e-19)
(0.654283 0.321351 0)
(0.67402 0.265866 1.64786e-21)
(0.510585 0.481031 3.0971e-19)
(0.404864 0.517378 -1.11799e-18)
(0.361854 0.418563 -2.06226e-20)
(0.425999 0.393594 0)
(0.453589 1.01378 4.34867e-19)
(0.729106 0.955943 4.96421e-19)
(0.608727 1.09624 -5.74057e-19)
(0.713051 0.958355 -2.18223e-19)
(0.915502 0.932164 -7.26933e-20)
(0.905488 1.05349 7.49563e-20)
(0.714607 0.670826 -7.91089e-19)
(0.771226 0.916769 2.04394e-19)
(0.949868 0.841374 0)
(0.869995 0.769982 -2.88806e-19)
(0.84675 0.296449 2.73991e-19)
(1.01857 0.375987 4.67755e-19)
(1.0228 0.246795 4.46844e-19)
(0.885642 0.417069 -5.29623e-19)
(1.03994 0.373248 0)
(1.02749 0.376392 0)
(0.746593 0.434348 -1.10759e-20)
(0.767 0.253079 0)
(0.699858 0.271154 3.94006e-19)
(0.860843 0.265632 -8.0031e-21)
(0.863692 0.471506 2.22445e-18)
(0.749968 0.543486 5.90735e-19)
(0.772105 0.483494 -5.70203e-19)
(0.713771 0.406961 6.07321e-19)
(0.67379 0.514513 3.41559e-19)
(0.623728 0.415176 -3.2996e-19)
(0.9954 0.0790407 7.95155e-19)
(0.964968 -0.0623778 0)
(0.994855 -0.0121516 5.29342e-19)
(0.90919 0.0767102 -1.18912e-18)
(1.02245 -0.0220828 5.71311e-19)
(0.980184 0.0418198 -1.20838e-18)
(1.0315 -0.00826411 0)
(0.982877 -0.029926 -2.52253e-19)
(1.01265 0.0510246 6.34599e-19)
(0.975252 0.00850403 -3.27258e-19)
(0.949331 -0.0673722 2.38151e-19)
(-0.0394048 1.80039 0)
(0.16469 1.72082 0)
(0.0374292 1.78563 0)
(0.0050052 1.83132 0)
(0.0550922 1.79523 2.87901e-19)
(0.0667541 1.79297 -8.17617e-20)
(0.0735276 1.698 -8.62758e-20)
(0.124932 1.71663 8.82619e-20)
(-0.0322043 1.73606 -2.41979e-19)
(0.0538225 1.71062 1.80992e-19)
(0.0226523 1.79135 8.95984e-21)
(0.0248625 1.76956 -1.97123e-19)
(-0.00479633 1.76781 -2.99925e-20)
(0.0998839 1.78066 -2.6892e-20)
(0.0237886 1.68792 -2.07328e-19)
(0.0891443 1.68926 0)
(0.115252 1.7113 1.0855e-19)
(0.0309307 1.76707 7.54626e-20)
(0.141465 1.64626 -1.00379e-19)
(0.138703 1.61496 0)
(0.150578 1.57985 -4.41611e-19)
(0.157505 1.59863 3.18026e-19)
(0.164784 1.64686 -2.66259e-19)
(0.176206 1.67103 1.74451e-19)
(0.0383717 1.53878 0)
(0.0389565 1.68051 -1.82649e-19)
(-0.00730577 1.69656 -2.60625e-19)
(-0.0150489 1.67153 0)
(0.0371561 1.79546 2.98007e-21)
(0.0293373 1.75315 9.21359e-20)
(0.0057253 1.79002 1.53894e-20)
(0.0379284 1.76115 -2.44521e-19)
(-0.00532737 1.76147 6.37491e-20)
(-0.0269676 1.67164 9.17938e-20)
(0.0421925 1.78336 0)
(-0.042483 1.81949 0)
(0.0145735 1.76907 8.44122e-20)
(0.0348544 1.7581 -2.66862e-20)
(-0.0514319 1.79081 0)
(-0.0416196 1.77136 6.27052e-20)
(0.0536502 1.75487 -1.24982e-19)
(0.954747 0.129035 0)
(1.04517 0.0948132 -8.51629e-20)
(0.972212 0.0356843 -5.84819e-19)
(0.925747 0.0149988 0)
(0.954248 -0.0587612 0)
(1.03152 -0.0699027 -1.94417e-20)
(0.966138 -0.0785268 9.73151e-19)
(0.975132 -0.013428 1.17968e-18)
(0.984021 0.0026037 0)
(1.01626 -0.00655861 0)
(0.980528 -0.0180312 5.83545e-19)
(0.975873 0.0308936 0)
(0.967303 0.0617106 0)
(-0.0917041 1.79849 0)
(-0.0223745 1.67268 2.09414e-20)
(-0.0311594 1.69619 2.2262e-20)
(0.00586325 1.7864 0)
(0.115247 1.74134 5.3337e-20)
(0.0731348 1.76991 -1.47622e-20)
(0.0256047 1.75892 0)
(0.438052 1.63346 0)
(0.369928 1.58511 -4.75946e-19)
(0.382862 1.57772 0)
(0.449645 1.764 5.40377e-19)
(0.539129 1.7691 0)
(0.511676 1.79377 -2.17166e-19)
(0.577858 1.50608 -1.5464e-20)
(0.564781 1.42968 -8.27117e-19)
(0.590665 1.42332 1.02859e-18)
(0.468833 1.42135 1.92505e-19)
(0.502559 1.45661 0)
(0.570544 1.47646 0)
(0.623983 1.41758 0)
(0.506733 1.39104 -6.94247e-19)
(0.398617 1.52148 -4.37463e-19)
(0.372872 1.47505 -9.96674e-20)
(0.458865 1.51753 7.98679e-20)
(0.369864 1.46358 0)
(0.461545 1.44654 0)
(0.431958 1.42674 -1.87751e-19)
(0.399375 1.43094 0)
(0.488922 1.49904 0)
(0.521551 1.43199 -5.65507e-19)
(0.44162 1.28491 -3.80788e-20)
(0.700021 1.5184 0)
(0.619581 1.58272 8.89684e-19)
(0.668089 1.26407 -1.90219e-19)
(0.887625 1.19903 0)
(0.742002 1.11061 3.25022e-19)
(0.430265 1.46287 0)
(0.465881 1.25778 0)
(0.741767 1.5058 -3.74404e-19)
(0.707991 1.54106 -2.69976e-19)
(0.690749 1.52601 4.72914e-19)
(0.706316 1.53034 -1.43922e-19)
(0.722899 1.46768 0)
(0.689718 1.4887 1.90145e-19)
(0.769139 1.497 -3.13338e-19)
(0.759082 1.44808 -7.6196e-21)
(0.587997 1.53127 0)
(0.595286 1.56737 -2.14919e-19)
(0.640405 1.54677 0)
(0.808146 0.17289 0)
(0.799752 0.178811 0)
(0.736378 0.207944 0)
(0.791282 0.249171 -6.21073e-19)
(0.755247 0.210861 3.45275e-19)
(0.946816 -0.0185183 -4.2389e-19)
(0.902643 0.0662516 0)
(0.869772 0.0469648 1.81541e-19)
(0.848178 0.120203 7.25512e-19)
(0.838064 0.0208408 -4.65127e-19)
(0.833583 2.29892 6.02138e-20)
(0.85137 2.15355 0)
(0.758686 2.37818 1.24824e-19)
(0.135299 2.48078 -1.07929e-19)
(0.326374 2.084 -3.04947e-19)
(0.185798 1.49619 6.44648e-19)
(0.272566 1.56361 0)
(-0.189022 0.8358 -9.85718e-20)
(-0.0269133 1.0227 7.84793e-19)
(-0.221997 0.472524 -1.36722e-19)
(0.130534 0.478426 1.52398e-19)
(0.412675 0.531208 3.96178e-19)
(0.542194 0.52429 0)
(0.242072 0.755016 0)
(0.161787 0.712871 0)
(0.861106 0.734458 2.24285e-19)
(0.789732 0.565601 -5.69611e-19)
(0.855344 0.636429 4.87429e-19)
(0.8301 0.496071 -4.57725e-19)
(1.00807 0.598602 0)
(0.950345 0.641829 -1.45045e-19)
(0.738724 0.354013 -8.03092e-19)
(0.720525 0.325132 -9.92868e-19)
(0.624771 0.433522 6.25873e-19)
(0.664782 0.372582 -5.91901e-19)
(0.745901 0.333947 -4.78711e-19)
(0.719558 0.336743 5.98445e-19)
(1.01336 0.000711909 -6.07813e-19)
(1.0372 0.0192652 1.2669e-18)
(1.02484 0.0687906 7.62535e-19)
(1.05208 -0.049367 -9.17582e-19)
(0.884334 -0.00600772 0)
(0.866927 0.000383409 -1.53916e-18)
(0.0893103 1.6985 5.32063e-20)
(0.00118744 1.7284 0)
(0.105396 1.75852 3.41009e-19)
(0.0431833 1.73291 -3.06293e-19)
(0.0620702 1.72325 1.60891e-19)
(0.0802129 1.7946 0)
(0.0775751 1.80422 0)
(0.033653 1.71352 -2.8346e-20)
(-0.00234943 1.60817 2.54043e-20)
(0.0538987 1.61834 7.12596e-21)
(-0.135307 1.77012 -5.25692e-20)
(0.0522499 1.73822 3.02905e-20)
(0.53601 1.59686 -6.18395e-19)
(0.565105 1.60406 6.55131e-19)
(0.470546 1.70078 -3.06363e-19)
(0.575342 1.62332 2.98279e-20)
(0.645954 1.69855 0)
(0.590261 1.77211 -2.03976e-19)
(0.555881 1.76045 2.00903e-19)
(0.568647 1.70708 2.94575e-19)
(0.609549 1.71662 0)
(0.647304 1.62656 0)
(0.513447 1.45612 6.61532e-19)
(0.275505 1.51265 9.06812e-19)
(0.289272 1.47487 -6.156e-19)
(0.236316 1.52639 -1.06374e-19)
(0.349158 1.49647 2.2131e-19)
(0.245811 1.44058 -5.23881e-19)
(0.608409 1.44427 -5.76121e-19)
(0.723976 1.45295 0)
(0.630747 1.41842 -6.43593e-19)
(0.679399 1.46406 0)
(0.688864 1.48979 0)
(0.463102 1.85083 -3.85538e-19)
(0.528942 2.02027 -3.09267e-19)
(0.413689 2.0617 3.62581e-19)
(-0.580362 1.52886 0)
(-0.406598 1.47319 -2.97621e-19)
(0.0259977 1.60201 -4.0265e-19)
(0.294855 1.80831 0)
(-0.00458983 2.15426 2.16435e-19)
(-0.331829 2.20973 0)
(0.452112 0.895777 -9.16589e-19)
(0.60857 0.930446 1.22196e-18)
(0.655875 0.725958 -1.18836e-18)
(0.330762 0.734976 -1.08687e-19)
(0.439686 0.692691 -4.33709e-19)
(0.573508 1.80245 2.29594e-19)
(0.632798 1.71001 -4.89235e-19)
(0.507144 1.82988 6.8493e-19)
(0.507116 1.7296 -4.48626e-19)
(0.609424 1.59555 -6.34013e-19)
(0.64419 1.70498 -4.76998e-20)
(0.661971 1.66202 5.0477e-19)
(0.535154 1.69221 3.71279e-20)
(0.540798 1.58414 2.75488e-19)
)
;

boundaryField
{
    wall-4
    {
        type            noSlip;
    }
    velocity-inlet-5
    {
        type            fixedValue;
        value           uniform (1 0 0);
    }
    velocity-inlet-6
    {
        type            fixedValue;
        value           uniform (0 3 0);
    }
    pressure-outlet-7
    {
        type            zeroGradient;
    }
    wall-8
    {
        type            noSlip;
    }
    frontAndBackPlanes
    {
        type            empty;
    }
}


// ************************************************************************* //
