/*--------------------------------*- C++ -*----------------------------------*\
| =========                 |                                                 |
| \\      /  F ield         | OpenFOAM: The Open Source CFD Toolbox           |
|  \\    /   O peration     | Version:  4.0                                   |
|   \\  /    A nd           | Web:      www.OpenFOAM.org                      |
|    \\/     M anipulation  |                                                 |
\*---------------------------------------------------------------------------*/
FoamFile
{
    version     2.0;
    format      ascii;
    class       volScalarField;
    location    "29";
    object      p;
}
// * * * * * * * * * * * * * * * * * * * * * * * * * * * * * * * * * * * * * //

dimensions      [0 2 -2 0 0 0 0];

internalField   nonuniform List<scalar> 
918
(
0.335169
0.986092
0.0152773
0.334288
-0.0194041
0.953719
-0.726729
0.506528
0.314975
-0.302186
-0.284729
0.30706
0.814644
0.580445
-1.34453
-0.237833
0.459577
-0.60399
0.314302
-0.245071
0.546574
0.32148
0.324514
0.31492
0.376947
0.564397
0.695183
-0.0274857
0.00807284
-0.0402413
-0.0709061
-0.165454
-0.203979
0.83708
0.887693
0.910257
0.284041
0.121677
-0.569182
-0.653126
-0.643853
-0.774343
0.500699
0.503552
-0.393581
0.507484
0.519039
0.30271
0.314314
0.315265
0.316391
0.315314
0.316757
0.202591
-0.308803
-0.339836
-0.280847
-0.272377
-0.123839
-0.268824
-0.263576
-0.300852
-0.318417
0.235842
0.304158
0.301662
0.312284
0.319581
0.924862
0.895895
0.921508
0.838491
0.853293
0.792351
0.76421
0.601237
0.622716
0.566461
0.551937
-1.76918
-2.73091
-0.755912
-0.503786
-0.0207381
-0.189765
-0.172351
0.44972
0.45093
0.458505
0.473513
0.862267
-0.593568
-0.746005
0.314099
0.313058
0.321217
0.32156
0.318719
0.316797
-0.290245
-0.311082
-0.0781416
-0.221585
-0.172509
0.53267
0.530811
0.316612
0.313225
0.3252
0.344642
0.33837
0.0743822
0.38043
0.395171
0.380628
0.548624
0.546612
0.553679
0.669799
0.633051
0.732339
0.75587
-0.0104316
-0.00700065
-0.25278
-0.234171
-0.25883
0.280021
0.272117
0.298122
0.287303
0.289699
0.0382459
-0.096297
0.216206
0.243317
-0.478134
-0.554647
-0.654489
-0.677721
-0.792556
0.374624
0.488478
0.489078
-0.403666
-0.33427
-0.471818
-0.248125
-0.317616
0.293144
0.300038
0.294419
0.310001
0.304747
0.306317
0.318597
0.31569
0.317191
0.264582
0.366951
0.13601
0.0995701
-0.465248
-0.358722
-0.454465
-0.264082
-0.262304
-0.116842
-0.0956996
-0.140362
-0.130412
-0.256596
-0.260045
-0.256875
-0.344385
-0.341505
0.230478
0.220302
0.248562
0.255619
0.295955
0.296734
0.299267
0.297943
0.714421
0.737142
0.745385
0.718754
-3.75089
-6.81253
-0.177239
-0.036319
-0.0407946
-0.0346425
-0.0181879
-0.0371112
-0.0134229
-0.0163496
-0.112692
-0.104164
-0.107937
-0.137002
0.4339
0.436678
0.768374
0.755589
0.735565
0.680972
0.302197
0.304336
0.309886
0.305379
-0.359265
-0.33643
-0.348152
0.51629
0.524927
0.524269
0.0381214
-0.0447529
0.122426
0.149215
0.418538
0.403163
0.418448
0.443982
0.478937
0.762502
0.780283
0.78055
0.788445
0.833501
0.846371
0.81216
0.261017
0.270148
0.26582
0.301369
0.29904
0.299947
0.295253
0.29683
0.293996
-0.267643
-0.630478
0.31847
0.330905
0.297819
0.314142
0.443247
0.520824
0.469869
0.478265
0.4814
-0.180348
-0.243823
0.0566832
0.027653
0.17337
0.208191
0.186978
0.685688
0.646988
0.696967
0.670252
0.630338
0.65703
-0.670434
-1.91496
-1.17225
0.322492
0.132277
0.221197
-0.14469
-0.135689
-0.127356
0.733072
0.827218
0.412724
0.595528
0.644406
0.515747
0.546971
0.607207
0.529984
0.56579
0.600487
0.579487
0.345016
0.332179
0.319359
0.594138
0.636059
-0.0660211
-0.113213
-0.171259
-0.0782683
-0.0268599
-0.0515437
0.789162
0.689235
0.762223
0.312799
0.313394
-0.0652518
-0.111198
0.317506
0.317664
-0.0876824
-0.21297
0.20474
-1.04288
-0.0876663
0.305603
0.296185
0.312914
-0.299966
0.175828
-0.252066
-0.118594
-0.16461
0.305135
0.245604
0.208076
-0.110848
-0.285729
-0.310383
-0.425265
0.310308
0.308468
0.312427
0.313538
0.314149
-0.14327
-0.124447
-0.0916359
-0.318839
-0.204114
-0.236382
0.278098
0.294334
-0.381823
0.312565
0.31475
0.314573
0.307416
0.313224
0.311189
-0.266483
-0.230125
-0.319466
0.0299247
0.144577
0.452064
0.555754
0.418966
0.187277
-0.0608191
0.350707
0.416549
0.319456
0.477155
0.47845
0.498747
-0.0208364
-0.177964
-0.016188
-0.0735367
0.303788
0.30214
0.294542
0.291599
0.307881
0.306032
0.310479
0.307376
0.310248
0.311733
-0.252044
-0.270983
-0.293113
-0.356719
0.133768
0.394208
0.0597546
0.0981596
-0.0496796
-0.275426
-0.283933
-0.235927
-0.253423
-0.163768
-0.181756
-0.131513
-0.128775
-0.176683
-0.172046
-0.175292
-0.183231
-0.206954
0.298916
0.297827
0.304065
0.310918
0.254834
0.258677
0.22503
0.244628
0.229944
0.174445
0.208127
0.182703
-0.0895798
-0.13387
-0.0747032
-0.28046
-0.203924
-0.285846
-0.23503
-0.326702
-0.202773
-0.225926
-0.374886
-0.354046
-0.387784
-0.504257
0.760112
0.70237
-0.117253
0.299412
0.305879
0.302566
0.307402
0.310471
0.311417
0.30918
0.305688
0.294987
0.29693
0.293197
0.293433
-0.315813
-0.459738
-0.287403
-0.348818
-0.0905936
0.413168
0.15698
0.0877303
0.0885054
0.310746
0.720733
0.492275
0.489589
0.529872
-0.576638
-0.191622
-0.510489
0.0806885
-0.0986732
0.451222
0.501356
0.522811
0.469063
0.42113
-0.472399
0.316152
-0.264464
-0.222492
-0.0251507
-0.127801
0.501573
0.462259
0.468023
0.485532
0.50602
0.46485
0.444089
0.441493
0.482327
0.488677
0.280078
0.0650119
0.00841411
-0.0219165
0.448147
0.321663
0.376174
0.292089
0.298466
0.3014
0.299873
0.282878
0.290084
0.285822
0.291255
0.294261
0.303831
0.304343
0.299455
0.301796
-0.24654
-0.255532
-0.225077
-0.346983
-0.337245
-0.397884
-0.270651
-0.151998
-0.17857
0.0133317
0.0941195
-0.177986
-0.279539
-0.249815
-0.235398
-0.0520821
0.00700091
-0.112669
-0.0372252
-0.0437941
-0.0576866
0.0510528
0.0479309
-0.246927
-0.212214
-0.234033
-0.238212
-0.149966
-0.0936424
-0.066791
-0.251162
-0.19571
-0.309577
-0.331926
-0.235863
-0.229056
-0.216788
-0.183471
-0.329804
-0.27297
-0.276236
-0.29981
-0.236581
-0.25461
0.293479
0.29495
0.29502
0.303351
0.317065
0.331737
0.296057
0.276502
0.267712
0.270297
0.245183
0.254735
0.250663
0.262688
0.282487
0.290089
0.289499
0.292016
0.27556
0.277303
0.264679
0.267501
0.246508
0.228509
0.216885
-0.276066
-0.21007
-0.275154
-0.233329
-0.150183
-0.18417
-0.193024
-0.254787
-0.234111
-0.206003
-0.168187
-0.413518
-0.361873
-0.296768
-0.220302
-0.403202
-0.438181
-0.511892
0.666182
0.764884
0.59569
0.371571
0.374824
0.612589
0.701672
0.349379
0.505069
0.542728
0.359539
0.615493
0.304337
0.303887
0.301517
0.300994
0.302355
-0.229355
-0.123002
-0.119007
-0.0598467
0.0552544
0.179689
0.071345
-0.0593559
0.0790761
0.0780899
0.406891
0.425382
0.369252
0.395036
0.394001
0.221193
0.296894
0.352449
0.308497
0.350105
0.369689
0.334058
0.360815
0.311944
0.267472
0.269099
0.213725
0.227705
0.207052
0.190577
0.294371
0.271557
0.28209
0.272311
0.293781
0.319429
0.312561
0.340965
0.352599
0.278779
0.240482
0.247095
0.277192
0.239271
0.252657
0.266126
0.00127968
-0.0677025
-0.03064
-0.322157
-0.235428
-0.312589
-0.342771
-0.227567
0.0730368
-0.670606
-0.73119
-1.28871
0.259084
0.781031
0.458576
0.401332
0.501992
0.476763
0.477095
0.510571
0.514143
0.437651
0.454762
0.461677
0.407559
0.430798
0.4608
0.45712
0.298687
0.162396
0.151768
0.118616
-0.00127612
0.0340534
0.237548
0.152141
0.0797052
0.0970913
0.258529
0.155033
0.217921
0.246072
0.166502
0.140241
0.332159
0.404389
0.39467
0.368177
0.286464
0.296382
0.326984
0.36127
0.386418
0.424848
0.291133
0.296838
0.298116
0.295779
0.292841
0.295558
0.295645
0.298272
0.299135
0.302224
0.30116
-0.250609
-0.232431
-0.25137
-0.261437
-0.230182
-0.235852
-0.181476
-0.187636
-0.211914
-0.203038
-0.23299
-0.229067
-0.229692
-0.221815
-0.0979621
-0.0957759
-0.110406
-0.146976
0.0146032
0.158938
0.215257
0.0972757
0.00507262
0.036834
0.0540284
-0.221875
-0.175229
-0.181103
-0.150133
-0.155974
-0.2995
-0.335267
-0.328579
-0.224492
-0.268006
-0.388841
-0.380092
-0.394885
-0.387024
-0.356052
-0.368056
0.279153
0.273006
0.272561
0.26768
0.267136
0.279005
0.283259
0.285493
0.290654
0.292097
0.283378
0.288074
0.291384
-0.38074
-0.434336
-0.427982
-0.404449
-0.460193
-0.460298
-0.423803
-0.105761
-0.179637
-0.179092
-0.219818
-0.344556
-0.288127
0.261099
0.25999
0.28851
0.481094
0.329212
0.256172
0.35509
0.449515
0.0359315
0.231253
0.0637912
0.644758
0.535675
0.676927
0.293092
0.00622179
0.16379
0.222376
0.0124095
0.0883535
0.0961372
-0.00242406
0.0256475
0.0464608
0.148651
0.0457095
0.0265508
-0.226307
-0.0373607
0.0913921
0.0752139
0.205626
0.276012
0.0131145
-0.0516741
-0.0835754
0.397093
0.418252
0.441632
0.406734
0.433316
0.354221
0.344572
0.364245
0.373935
0.367116
-1.0134
-0.722754
-1.63912
-0.929415
-0.48826
0.29248
0.255065
0.530709
0.42073
0.483759
0.469884
0.440637
0.404344
0.413343
0.446474
0.15407
0.257541
0.234015
0.239
0.134696
0.0805582
0.374012
0.365424
0.407529
0.429557
0.394542
0.430604
0.28895
0.288571
0.288111
0.285036
0.283521
0.285267
-0.135876
-0.168186
-0.134763
-0.151524
-0.173224
-0.186661
-0.363206
-0.379778
-0.411245
-0.444361
-0.380432
-0.341293
-0.0805965
-0.137117
-0.202001
-0.176199
-0.233043
-0.298694
-0.317467
-0.218749
-0.133059
-0.127524
0.173121
0.410475
0.234592
0.401824
0.270346
0.301132
0.281902
0.275166
0.308333
0.170993
0.241336
0.0523617
-0.482545
-0.363631
0.512276
0.578063
0.360393
0.228558
-0.063886
0.0664286
0.328412
0.258015
0.301233
0.372008
0.365021
-0.218876
-0.187699
0.139378
0.340972
0.0133129
-0.0519072
-0.0365968
0.124168
0.0771785
)
;

boundaryField
{
    wall-4
    {
        type            zeroGradient;
    }
    velocity-inlet-5
    {
        type            zeroGradient;
    }
    velocity-inlet-6
    {
        type            zeroGradient;
    }
    pressure-outlet-7
    {
        type            fixedValue;
        value           uniform 0;
    }
    wall-8
    {
        type            zeroGradient;
    }
    frontAndBackPlanes
    {
        type            empty;
    }
}


// ************************************************************************* //
