/*--------------------------------*- C++ -*----------------------------------*\
| =========                 |                                                 |
| \\      /  F ield         | OpenFOAM: The Open Source CFD Toolbox           |
|  \\    /   O peration     | Version:  4.0                                   |
|   \\  /    A nd           | Web:      www.OpenFOAM.org                      |
|    \\/     M anipulation  |                                                 |
\*---------------------------------------------------------------------------*/
FoamFile
{
    version     2.0;
    format      ascii;
    class       surfaceScalarField;
    location    "29";
    object      phi;
}
// * * * * * * * * * * * * * * * * * * * * * * * * * * * * * * * * * * * * * //

dimensions      [0 3 -1 0 0 0 0];

internalField   nonuniform List<scalar> 
1300
(
3.75095
5.62643
-5.09297
3.75095
-5.16564
5.62643
-4.48961
4.48961
-1.08358
1.08358
1.87651
1.87444
-3.08133
3.08133
-2.39482
2.39482
-2.55229
2.55229
-5.24638
5.24638
-5.06764
5.06764
4.66293
-4.66293
-4.16301
4.16301
-1.48568
1.48568
-3.98182
3.98182
3.16874
-3.16874
-2.68192
2.68192
-0.306978
0.306978
-0.553193
4.30415
3.19776
3.19776
-2.12134
2.12134
-4.86235
4.86235
6.21761
-6.21761
7.257
-7.257
-2.16403
-3.42416
1.64491
-9.78947
-3.52073
-3.52073
-8.44023
8.44023
-2.8138
2.81263
2.94285
-2.94285
-1.86823
1.86823
-4.40867
-0.0809326
-4.40867
4.50292
-0.0133162
4.50292
-1.20545
0.121865
-1.20545
4.00151
-4.00151
0.922477
0.161106
0.922477
3.06479
-3.06479
-1.87717
3.75368
1.87378
-1.87175
6.1759
-1.8792
3.75364
-5.86847
5.86847
-3.31442
0.233085
-3.31442
2.87925
0.20208
2.87925
-6.65237
6.65237
-2.543
0.148184
-2.543
2.2689
0.125912
2.2689
2.85757
-2.85757
-2.65428
0.101991
-2.65428
2.44502
0.107268
2.44502
0.353696
5.27273
-5.98013
8.79275
-5.27273
0.0263579
5.20827
0.0381025
5.20827
-5.10562
0.0379754
-5.10562
5.01266
0.0549816
5.01266
4.74163
-0.0787013
4.74163
-4.78503
0.122099
-4.78503
-2.80071
-4.85556
-4.87146
0.708448
-4.87146
-1.4841
-0.00157736
-1.4841
1.4416
0.0440796
1.4416
-3.53001
3.53001
-4.32178
0.339959
-4.32178
3.12276
0.0459805
3.12276
1.86906
1.88189
5.62002
-5.62002
2.45128
-2.35352
-0.328398
-2.35352
-3.07218
-4.18483
3.07218
-0.390261
-0.574114
0.267136
-0.574114
3.15995
0.0378116
3.15995
2.31419
0.130834
-2.31419
0.192853
3.20698
-3.20698
1.51122
0.610118
1.51122
-5.56933
5.56933
4.95251
0.0601528
-4.95251
0.0901568
6.15607
0.0615367
6.15607
-6.19988
-0.0177276
-6.19988
2.05821
-5.48237
-4.07383
3.67118
0.491832
-3.67118
0.15045
2.91228
0.0305749
2.91228
-2.91992
2.91992
-2.98335
0.0404919
-2.98335
-2.25278
0.384555
-2.25278
1.58281
0.285417
1.58281
-4.28725
-0.121424
-4.28725
-4.43845
0.116667
4.43845
0.0644749
1.10638
-1.10638
-1.32203
0.116583
-1.32203
-4.14309
-0.144156
4.14309
-0.141586
-3.85165
-0.14986
-3.85165
-3.0237
0.0403541
3.0237
0.0410921
3.11293
0.0470204
-3.11293
0.048136
-1.87091
3.7528
-1.88004
3.75382
-5.4949
-0.373568
-5.4949
6.17253
-0.304061
6.17253
3.64982
0.332002
-3.64982
0.335404
2.69569
0.183565
2.69569
-6.6447
-0.00767478
-6.6447
6.60007
0.0523001
6.60007
2.59148
0.104208
-2.59148
0.0484779
2.21071
0.0581927
2.21071
2.86451
-0.00694445
2.86451
-2.86125
0.0036788
-2.86125
2.80017
-2.80017
2.73183
0.0683422
-2.73183
0.0775486
-11.1325
11.1147
-0.034911
-11.0976
5.17336
5.17336
4.15838
0.583255
4.15838
-5.00093
0.2159
-5.00093
2.1937
-6.26752
4.66647
-7.46718
4.53333
-14.3228
3.34018
-8.19574
6.13644
-6.13644
5.61091
0.525535
-5.61091
0.739446
-1.5075
0.0234001
-1.5075
-2.92526
-0.604748
-2.92526
4.18283
-0.652826
4.18283
-3.02849
3.02849
-3.0772
0.0487097
3.0772
0.0455622
2.24247
-0.0317611
-2.24247
-0.111046
0.751105
0.171372
-0.751105
0.176992
3.41976
-0.21278
3.41976
-3.00764
-0.199341
-3.00764
-1.51586
0.00835485
1.51586
-0.00464037
-5.81687
0.24754
-5.81687
-11.1909
0.0933616
-11.1528
-6.10652
-6.10652
2.33371
11.1265
-2.88504
0.0237901
2.88504
0.0272412
2.97508
0.053408
-2.97508
0.0551539
-2.86208
0.0619084
2.86208
0.0578436
-2.63702
0.384242
-2.63702
-1.17419
1.17419
-1.35388
0.179682
1.35388
0.228934
1.33664
-0.230269
1.33664
1.38701
0.0545914
-1.38701
0.0649777
-3.7293
-0.122351
-3.7293
6.41687
-0.244346
6.41687
-2.90632
-0.101319
2.90632
-0.041803
-0.0334371
11.1482
-5.13993
0.0343079
5.13993
-11.2097
11.244
-3.26464
0.62762
3.26464
0.893735
5.2908
0.278522
-5.2908
0.289872
6.44162
0.158446
-6.44162
0.305185
-2.44118
-0.484078
-2.44118
-4.92404
-0.570861
4.92404
-0.741203
-11.4733
-0.202844
11.6762
-11.4184
6.01971
0.136362
-6.01971
11.3804
-1.07522
-0.0311586
1.07522
0.0989769
1.62062
-0.283974
1.62062
3.61362
-0.193863
-3.61362
-0.115677
-6.57641
-0.0682825
6.57641
-0.15954
-2.00539
-0.435788
2.00539
-0.384775
-4.26691
4.30473
1.90898
-1.42663
-4.05573
-5.61146
1.85158
1.90122
4.30286
-9.21655
-5.10624
-9.0661
7.2635
-6.97363
-9.28125
9.20255
7.56659
-7.71645
-5.78731
5.83287
6.4815
-6.44041
1.87895
1.87473
7.87508
-7.642
-15.6475
15.274
7.15893
-7.01075
15.7775
-15.7851
-17.8496
18.008
-5.73763
5.83962
-6.71518
6.71886
-6.89947
6.85767
-1.61278
-5.85441
13.2295
-12.5211
6.72219
-7.05059
-8.4753
8.81526
3.38185
0.922872
3.42887
-1.88237
3.76132
-1.87127
3.78025
4.48116
-6.09394
1.78636
-5.8421
3.73603
2.98616
-3.34577
-2.26569
-5.91646
5.94704
-5.82477
5.88262
8.92673
-9.00766
-1.8851
3.75984
-1.86872
3.76994
-3.42655
-2.36076
3.38057
0.922288
7.47046
5.75908
-7.96229
-1.10381
-7.83513
7.64126
-8.09178
7.89244
-0.438492
5.81743
-5.37893
4.42386
-1.55064
7.36807
5.71286
5.92876
5.86605
-5.58753
1.10758
-6.48651
-6.39635
-2.55294
2.66952
2.49802
-2.33691
5.94644
1.62015
5.80486
-5.56678
-2.14966
-5.68914
3.82195
2.01092
3.87066
4.07577
2.40573
4.11612
3.03082
-3.03514
0.00432072
-3.05617
6.08699
0.724703
-5.41693
-4.49464
4.9032
2.97188
5.10528
-5.46541
-2.17659
-5.13
-9.52042
-6.12711
-10.0913
10.1016
5.17231
9.79759
-11.9703
11.8107
4.06718
3.09175
4.19309
-4.79115
-2.2196
-4.74267
11.6886
-2.61798
-9.07067
-10.2976
-7.55202
10.2453
5.5322
10.8985
7.1095
11.2037
4.46628
7.22237
-9.99848
2.44646
-3.87787
-1.85976
-3.80032
3.71377
2.12586
3.82104
-4.21055
-2.50463
-4.18676
-4.28011
-2.61936
4.28706
2.4318
-4.36347
-3.72831
4.46479
2.39287
4.82688
-9.93313
3.36886
-9.22327
-9.45206
-3.06904
-8.71261
5.64284
1.34645
-6.98929
-0.451096
8.55888
-5.57272
6.29319
-3.88474
-3.16585
-3.99579
-6.74929
-1.726
-6.63263
-8.83924
8.35516
-9.17457
8.52174
12.7189
-5.72808
-6.99079
-3.96805
-2.47236
3.91991
-0.491039
-3.71148
3.7158
0.0498389
3.83009
4.75297
4.26193
-3.88893
-1.93585
-3.83377
3.83498
2.04764
3.89688
6.72847
2.19826
6.71515
-6.4561
-2.55156
-6.57752
9.05791
-8.67336
2.93516
-2.92681
5.27413
2.61831
-5.06135
-2.77378
6.15982
-3.10024
-3.05958
-12.2114
10.5789
1.63253
-4.84334
-0.41948
-0.112502
-5.49685
-3.7844
5.37475
0.554007
11.1329
7.34848
-5.51312
5.76066
6.16307
6.22322
-0.173129
5.78494
-5.15732
5.34351
-2.42721
-2.9163
5.31297
-5.45713
-1.26455
-5.261
3.99645
0.347731
1.71214
-1.445
-2.01891
-0.534024
-1.95394
1.48123
1.01679
1.6526
0.976823
1.6927
-2.93822
0.522352
2.41586
-1.96139
-1.81456
-3.69556
-1.03402
4.72958
5.61325
2.02801
-5.49758
-0.19156
2.7253
-2.68122
-0.809871
-2.88569
2.09573
-2.9056
-3.58915
-1.88678
5.47593
-3.37152
-0.46225
3.31811
0.552549
-3.82466
-2.09181
3.78417
0.331955
-3.12408
6.18866
-3.06458
-5.05993
2.52944
3.55755
4.54036
-4.78947
2.44581
2.34366
-1.23192
4.19195
0.913329
4.37552
-6.67768
4.50109
5.71394
3.10132
-6.04594
0.915938
-5.76175
8.44388
-7.2336
-1.21028
4.12548
4.31841
7.21002
5.50884
-5.76977
12.9798
-1.1435
-6.0901
6.90525
-3.80393
4.71912
-8.52306
-10.228
4.13786
-9.22609
10.9652
-1.73908
-3.62437
-8.34588
12.8505
-1.20736
-11.6431
8.59023
-4.19714
-4.64397
8.84112
-6.81512
6.86358
-1.92089
-4.94269
-10.0985
-5.68666
10.1668
1.64396
-10.6866
13.133
-3.4642
3.1513
1.0418
3.20949
3.24655
-5.39476
2.14821
3.56857
-5.48946
2.098
-7.49276
-7.76348
13.1547
-5.3912
-10.8325
-10.3789
-0.453617
2.59298
10.54
-9.70247
7.36225
2.34022
3.31251
0.584376
-3.38085
-0.41947
0.273585
4.55883
-4.83241
4.09462
4.22546
3.41892
1.13991
3.8383
2.10874
-3.86554
-0.321214
-4.14349
1.52413
-1.71169
-3.64483
5.16896
-4.07639
0.431565
-2.73041
-3.5208
6.25121
-4.59017
3.04034
3.14832
5.08798
-4.90827
1.38747
-2.40484
-2.50343
2.68892
-4.40061
1.93826
3.23069
4.33114
0.602824
7.38683
5.76784
-8.73328
-0.489988
11.5269
-10.4231
2.83098
8.37274
-10.1932
-0.185666
-8.89828
0.107345
-5.68007
-6.88195
5.02909
-6.75509
-3.49397
6.1187
0.596448
-6.18318
-0.449447
-6.01423
-2.825
-6.45002
-3.06075
-6.11382
-8.83053
-1.63659
-7.19393
6.71856
-6.66003
-3.43125
7.40123
1.12051
-7.38601
7.35485
-7.45886
7.17489
0.0945846
3.62122
4.35651
1.88416
-2.3893
4.27345
-5.02643
7.22469
-8.45385
3.42742
3.97668
-6.52824
-4.47717
5.0424
4.01551
5.32782
8.94342
-10.4588
1.5154
-10.8228
12.121
-1.29827
-16.5744
5.75165
-7.63099
2.67424
0.260916
2.69764
0.671563
2.41566
-3.08722
-2.25524
-2.25988
-2.32544
-3.38416
5.7096
1.13421
-3.40323
2.26902
-3.47466
4.60887
-0.0671353
-3.33609
5.26439
-2.84873
5.52531
-3.54179
1.98351
3.31109
5.66153
-2.35044
4.32345
-1.70513
1.83449
-4.18493
-1.54967
-2.98155
5.10741
-3.26966
3.70122
-0.274994
3.97622
-4.08731
0.987063
-0.668383
3.55707
3.74993
4.27887
-3.13896
2.96564
-4.67077
-1.21929
-4.06795
-0.837254
-0.283962
-3.80817
4.09214
6.06868
-6.35264
-5.23199
9.55621
-4.32423
7.73616
-5.39494
-2.34123
-4.25492
-4.41843
3.87068
1.91426
9.65042
0.237336
-5.63227
-4.91998
-4.02625
3.20403
2.13947
-1.93261
3.56514
2.04511
-0.332977
0.583671
1.06893
1.86487
-1.2812
0.199078
1.66579
-1.24592
1.9967
0.728598
-2.05129
0.0973585
-1.39232
3.48805
1.02354
-2.04033
0.759133
1.05662
-3.48383
4.86193
-2.48474
-2.37719
5.91855
1.13692
-3.62165
4.12408
-3.77635
2.31725
-3.35127
-1.3044
-5.08076
-3.46061
-2.51736
4.78638
-3.19224
5.22025
1.19722
-5.02869
6.22591
-3.54242
1.65564
-3.06481
3.79341
-1.06645
-1.99836
2.77291
2.70302
-2.9183
0.0326122
-0.145384
2.31542
-2.4608
-0.590185
-2.55158
-4.57203
4.90398
-2.10715
4.55297
2.1663
-1.91439
6.46735
1.81157
-3.72595
-3.24836
-3.71061
-1.38229
3.15806
-0.501823
-4.24085
-5.44451
4.13664
0.238879
-6.86814
7.68376
-0.815619
-3.89626
-0.604832
4.73031
-5.98325
0.493793
-3.88525
3.79851
4.71184
4.95072
-11.4481
-0.195043
-6.27574
1.19378
-7.46953
5.51219
-3.65072
7.78858
-10.4496
7.01833
-9.32908
6.5783
-0.891224
6.23217
-4.08397
2.83849
-8.52516
-6.8812
5.54689
-2.45514
6.58869
-2.92178
9.51047
-6.38598
4.80311
4.70736
-0.966564
-3.02923
-4.95161
3.98505
-0.148503
3.06099
4.97173
-2.863
4.65052
2.25472
-4.65956
-2.14589
-6.50028
1.84071
-3.35196
-1.91411
3.75483
3.17387
3.75824
1.2514
-3.33877
8.88822
-9.34184
-3.49703
-3.38492
4.65022
-0.665174
4.19569
-7.58061
-1.48437
4.9177
-0.86877
-4.04893
0.810381
-4.30435
1.65014
-5.95448
5.10496
-5.5544
2.17567
-9.80665
-5.21034
-5.11137
-2.23418
-5.22468
-7.65155
5.41737
-1.8999
5.45495
-8.63942
7.77065
-3.48161
8.89898
-5.43034
-1.01968
5.81511
1.35978
10.2588
0.189844
-4.66701
-1.92377
4.00294
-2.07917
1.28026
-3.61833
0.384615
2.46165
3.4569
-6.45809
-0.0701493
-4.73716
-3.93195
7.94746
5.62427
11.6929
1.23413
9.13443
-1.18697
10.3686
4.14084
4.36978
-3.06184
4.57724
1.03029
4.45771
-0.845264
2.82878
1.85238
1.8508
0.830417
2.29704
1.45289
3.2841
0.196881
-2.063
4.63652
-8.66277
-0.995754
-8.07951
1.12304
5.82663
-4.70359
3.12927
-0.989794
1.0501
0.125556
-1.65782
1.53226
-2.79074
-1.99079
-0.324998
-1.59964
2.35877
1.88841
-2.03377
-0.756966
0.318582
-3.77919
3.03269
-3.00007
-0.297055
5.92886
-2.73738
0.276575
-1.08174
-2.275
-2.80903
2.71167
6.17592
0.291439
3.11134
5.19542
3.10362
0.240619
3.93502
-5.67409
-3.55774
-5.86914
-0.356946
4.37336
1.42438
9.11567
6.13173
5.46656
-2.11405
-11.4559
6.55371
-1.97648
5.25544
-1.20651
-4.74797
4.94807
2.27662
-5.54452
-0.00988205
-4.75785
-6.73433
-0.572434
8.34308
-9.68633
8.66664
5.84164
1.35229
-4.40137
-0.709992
4.22169
0.148084
10.5166
-1.17753
-6.7525
7.93003
-4.6491
3.65334
0.803979
2.76116
2.33624
1.34645
-5.40606
-10.1096
-1.90959
-1.57424
-4.28678
0.442796
-2.33121
6.28076
-2.62742
3.93954
5.30262
6.35271
-2.14961
-4.20303
6.47384
-2.5343
3.81842
)
;

boundaryField
{
    wall-4
    {
        type            calculated;
        value           uniform 0;
    }
    velocity-inlet-5
    {
        type            calculated;
        value           uniform -3.75095;
    }
    velocity-inlet-6
    {
        type            calculated;
        value           uniform -5.62643;
    }
    pressure-outlet-7
    {
        type            calculated;
        value           nonuniform List<scalar> 8(5.09297 5.16564 5.58819 8.14455 7.65627 6.13204 6.86017 7.87351);
    }
    wall-8
    {
        type            calculated;
        value           uniform 0;
    }
    frontAndBackPlanes
    {
        type            empty;
        value           nonuniform 0();
    }
}


// ************************************************************************* //
