/*--------------------------------*- C++ -*----------------------------------*\
| =========                 |                                                 |
| \\      /  F ield         | OpenFOAM: The Open Source CFD Toolbox           |
|  \\    /   O peration     | Version:  4.0                                   |
|   \\  /    A nd           | Web:      www.OpenFOAM.org                      |
|    \\/     M anipulation  |                                                 |
\*---------------------------------------------------------------------------*/
FoamFile
{
    version     2.0;
    format      ascii;
    class       volVectorField;
    location    "29";
    object      U;
}
// * * * * * * * * * * * * * * * * * * * * * * * * * * * * * * * * * * * * * //

dimensions      [0 1 -1 0 0 0 0];

internalField   nonuniform List<vector> 
918
(
(0.985096 -0.000544952 0)
(0.00477812 2.96626 0)
(-0.0485577 1.34072 0)
(0.979824 0.0024115 0)
(0.00403541 1.34661 5.38603e-20)
(-0.00704695 2.9489 -8.8039e-19)
(0.835521 1.19162 2.63162e-19)
(0.357265 0.170719 -4.50115e-21)
(0.999903 -0.000311157 0)
(0.0578233 0.890321 0)
(0.0297207 0.684406 0)
(0.728399 -0.00665676 0)
(0.011515 2.93011 0)
(0.00296898 2.79472 0)
(-0.0191862 3.15477 4.34942e-19)
(-0.0802553 1.26579 8.04864e-20)
(0.450245 0.0646709 2.86601e-19)
(0.170255 1.23665 2.17958e-19)
(0.961953 0.00388168 0)
(-0.0504912 0.765379 0)
(0.0927578 0.199143 -2.19518e-19)
(1.00218 -0.00520952 0)
(1.00075 -0.0101654 0)
(0.975951 -0.00652259 0)
(0.596138 -0.0378411 0)
(0.0182326 2.63581 0)
(-0.0148389 2.91016 2.95594e-19)
(-0.124689 1.22758 0)
(-0.162546 1.47633 0)
(-0.0798435 1.28842 0)
(-0.00413679 2.19993 0)
(0.0861877 1.41582 -4.17309e-20)
(0.0316189 1.05219 0)
(-0.020453 2.98751 -3.10594e-23)
(-0.0169855 3.0054 6.99354e-19)
(0.00201836 3.00016 0)
(0.870066 -0.0087858 0)
(0.437785 0.975704 1.75846e-20)
(0.808035 1.21004 -3.4493e-19)
(0.957342 1.04497 3.36098e-19)
(0.676966 1.30861 -6.08464e-20)
(0.679449 1.29649 3.45529e-19)
(0.399557 0.260728 4.38886e-21)
(0.381976 0.150379 0)
(1.15171 0.581962 0)
(0.365631 0.258761 2.01954e-20)
(0.310804 0.173099 -2.09699e-20)
(0.919478 -0.00734396 0)
(1.0003 0.000140105 0)
(0.999919 0.000338508 0)
(1.00351 -0.0076925 0)
(1.00095 -0.000954586 0)
(1.00019 1.60828e-05 0)
(0.0698231 1.76491 -1.57132e-19)
(0.0357447 1.03976 0)
(0.0650138 0.9647 0)
(0.020554 0.976274 0)
(0.0307683 0.819754 0)
(0.0278551 1.98356 0)
(0.0114859 0.82281 0)
(0.000824269 0.724694 0)
(-0.00431775 0.762161 0)
(-0.00967971 0.64199 0)
(0.834179 -0.0140881 0)
(0.851999 0.0264063 0)
(0.76451 0.00148216 0)
(0.826607 0.0331412 0)
(0.696416 -0.0126908 0)
(0.0153401 3.00065 3.16968e-19)
(0.0117063 3.00834 0)
(0.0065014 3.00259 0)
(0.0141574 2.9972 3.51601e-24)
(0.00837165 2.95851 -4.79004e-19)
(0.0151963 2.98186 0)
(0.0112059 2.90368 0)
(0.0258009 2.93002 6.39278e-25)
(0.00482777 2.82492 0)
(0.0320228 2.91565 0)
(-0.00571359 2.74564 0)
(0.305543 3.5497 0)
(-0.145664 3.6269 0)
(0.136626 3.24698 -4.01472e-19)
(-0.0106273 2.98512 0)
(-0.266452 2.04761 0)
(-0.11664 1.50822 -7.93355e-20)
(-0.13946 1.4949 5.13127e-20)
(0.531052 0.15319 -9.89679e-20)
(0.445674 0.0445956 -9.54916e-20)
(0.516323 0.177886 -2.98138e-19)
(0.43156 0.0901194 -1.98988e-19)
(0.182242 0.901213 0)
(0.24881 1.36584 -2.29991e-19)
(0.366637 1.32527 3.82057e-19)
(0.987354 0.00816487 0)
(0.941376 0.00542985 0)
(1.00031 0.000421829 0)
(1.00327 0.00948726 0)
(1.00289 0.0078257 -6.49636e-19)
(0.99178 0.00990803 4.95936e-19)
(-0.0533658 0.831702 0)
(-0.0229107 0.665071 0)
(-0.123745 1.17681 0)
(-0.0520745 0.94215 0)
(-0.028892 0.894161 0)
(0.147548 0.210091 6.80119e-20)
(0.19848 0.190621 0)
(0.993341 -0.00828514 0)
(0.954424 -0.00614271 0)
(0.782897 0.0369406 0)
(0.736972 0.0449178 0)
(0.659745 -0.0289439 0)
(0.951108 -0.00106698 0)
(0.666963 0.0644078 0)
(0.501535 -0.0121656 3.94288e-19)
(-0.0359268 2.86552 1.72077e-19)
(0.0428244 2.90902 0)
(0.0556296 2.88399 0)
(-0.00424052 2.69773 0)
(-0.0138413 2.98493 2.73466e-19)
(-0.0182273 2.89503 0)
(-0.0159714 2.98803 -8.62774e-19)
(-0.0131846 2.92536 2.98338e-19)
(-0.261995 1.4691 0)
(-0.263401 1.63175 0)
(-0.0194279 1.36277 3.41794e-21)
(0.0537628 1.29152 0)
(-0.0460528 1.09936 0)
(0.937471 -0.00787699 0)
(0.856032 -0.00851456 0)
(0.863022 0.00639699 0)
(0.948812 -0.00793972 0)
(0.883416 -0.00734382 0)
(0.546878 1.17066 -2.57052e-20)
(0.597309 1.20945 0)
(0.404693 0.928014 6.22866e-21)
(0.344648 0.784993 0)
(0.92092 1.08195 -9.53183e-20)
(1.03241 0.887002 1.96141e-19)
(0.367724 1.40399 0)
(0.532489 1.37406 0)
(0.53244 1.3366 0)
(0.116481 0.193473 -7.64696e-20)
(0.442277 0.244446 0)
(0.415142 0.130148 5.65122e-20)
(1.00845 0.940374 0)
(1.08136 0.7934 0)
(1.10404 0.736166 -1.69297e-19)
(1.12975 0.635324 0)
(1.17361 0.41777 2.43188e-20)
(0.957475 -0.00846397 0)
(0.962207 -0.0101976 0)
(0.901895 -0.00747555 0)
(0.98429 -0.00922856 0)
(0.974726 -0.00930462 0)
(0.937377 -0.00602777 0)
(1.00018 0.00212949 0)
(1.00087 0.00144185 0)
(0.999862 0.000903343 0)
(0.0264113 2.03658 9.30299e-20)
(0.0984465 1.71373 0)
(0.0135036 2.14906 1.11856e-19)
(0.0430782 1.82683 -7.40421e-20)
(0.121642 1.23274 -1.80085e-19)
(0.0428688 1.10704 0)
(0.0956868 1.10271 0)
(0.0338485 0.921643 0)
(0.0117281 0.75896 0)
(-0.0137288 2.17261 6.44464e-22)
(0.028866 1.97463 0)
(-0.014561 2.14221 4.72151e-20)
(0.0170843 1.98671 -9.49896e-20)
(0.0180377 0.886928 0)
(0.0105777 0.854128 0)
(0.00406383 0.725119 0)
(-0.00800036 0.745353 0)
(-0.0189685 0.622199 0)
(0.931051 0.00760383 0)
(0.837129 -0.0162429 0)
(0.923419 -0.00160872 0)
(0.837089 -0.0113359 0)
(0.811567 0.0035377 0)
(0.903061 0.0184677 0)
(0.88148 0.0218124 0)
(0.788003 0.00265688 0)
(0.00417267 3.06445 -2.67871e-21)
(0.016654 3.0576 0)
(0.015274 2.96902 0)
(0.00890509 2.87636 0)
(0.964298 3.98781 0)
(1.30912 3.25063 4.77307e-19)
(0.0695628 3.07703 0)
(-0.0253386 2.90791 0)
(-0.349779 1.66023 0)
(-0.355827 1.9924 0)
(-0.308491 1.82679 0)
(-0.100899 2.23925 -2.27453e-20)
(-0.267509 2.16649 0)
(-0.164807 2.10639 0)
(-0.0776855 1.87708 -5.54814e-21)
(-0.123282 1.89956 -3.77373e-20)
(-0.13705 1.7125 -5.15465e-20)
(-0.122105 1.72508 0)
(0.559237 0.126546 1.46465e-19)
(0.460228 0.0202342 -1.43469e-19)
(0.270914 1.54396 0)
(0.237656 0.685372 -9.5353e-20)
(0.176124 1.63902 -3.14016e-19)
(0.199154 1.16134 3.14803e-19)
(0.901984 0.00598589 0)
(0.967475 0.0106517 0)
(0.974474 0.0105806 0)
(0.923384 0.00593427 0)
(0.00074809 0.73322 0)
(-0.0245919 0.761881 0)
(-0.0307845 0.642221 0)
(0.311461 0.252897 1.85203e-19)
(0.255028 0.226734 -2.20647e-19)
(0.262114 0.185026 0)
(1.08058 0.0876036 2.48369e-21)
(1.06046 0.0403793 0)
(0.99123 0.041501 0)
(0.885921 -0.0019184 0)
(0.586638 0.0949063 0)
(0.611166 0.0699048 -6.34513e-19)
(0.478083 0.00249955 2.41032e-19)
(0.00921303 2.98188 2.03496e-19)
(-0.0324575 2.86733 1.92421e-20)
(0.001953 3.04966 -5.75392e-21)
(0.0207665 3.04319 2.13694e-19)
(-0.0153094 2.99629 9.88409e-21)
(-0.0127941 2.94946 -4.0016e-23)
(-0.0175746 3.01151 -1.84935e-19)
(0.0142405 3.023 1.33134e-19)
(0.00673468 3.03679 -2.1356e-19)
(0.931185 -0.00275434 0)
(0.937801 -0.0033517 0)
(0.842392 -0.00802814 0)
(0.956621 0.0114437 0)
(0.943113 0.012653 0)
(0.881487 0.00571117 0)
(0.9189 0.0151526 0)
(0.926897 0.0142657 0)
(0.838886 0.00442312 0)
(0.762275 1.43657 1.1157e-19)
(0.805114 1.52828 0)
(0.238943 0.393807 1.85515e-20)
(0.228691 0.694023 1.46839e-19)
(0.286401 0.765785 -8.71023e-20)
(0.3135 0.588138 1.64674e-19)
(0.315157 0.777064 4.15426e-19)
(0.118329 0.225779 1.08979e-19)
(0.488332 0.20234 2.11977e-19)
(0.463768 0.220301 5.40118e-20)
(0.424723 0.11361 1.06561e-19)
(1.16415 0.47329 8.63904e-20)
(1.17125 0.269915 8.89983e-20)
(0.0140081 2.19277 2.91509e-20)
(0.0368318 1.89328 0)
(0.952785 0.029981 0)
(0.929488 0.0115512 0)
(0.851366 -0.0152394 0)
(0.011317 3.07448 0)
(0.0207679 2.94406 3.71079e-19)
(0.0171644 2.95637 0)
(0.00654176 2.85057 -3.69853e-19)
(0.00570984 3.09181 8.62407e-20)
(0.00571926 3.08167 0)
(0.890207 1.83214 -9.3175e-20)
(1.27418 2.38334 1.98072e-19)
(0.870471 1.93605 -5.54545e-19)
(0.0202607 2.98317 -1.59812e-19)
(0.036206 3.0037 0)
(-0.033091 2.88036 0)
(-0.049336 2.09161 3.30688e-22)
(-0.0793556 2.02108 9.00671e-20)
(-0.0118711 1.95705 1.56514e-21)
(0.278515 1.3611 3.10495e-19)
(0.190921 0.477098 -2.11976e-19)
(0.0552775 1.9668 2.20645e-19)
(0.154754 1.85924 -2.76475e-19)
(0.144721 1.43892 3.92496e-20)
(0.00466935 3.11849 -4.8872e-19)
(0.0106564 3.11904 5.53396e-19)
(-0.00964692 2.98055 2.41655e-19)
(-0.00469613 2.97784 -2.18416e-19)
(-0.0216611 2.88145 -2.46253e-19)
(0.00754811 3.09909 -6.3519e-19)
(0.000775164 3.10485 6.44549e-19)
(0.258716 0.700041 0)
(0.227319 0.694294 -3.01237e-19)
(0.137085 0.25547 1.34726e-19)
(0.328473 0.886576 3.20446e-19)
(0.171214 0.260334 -4.9155e-19)
(1.1654 0.178024 -5.96842e-21)
(1.17267 0.318924 0)
(1.1506 0.127651 3.10008e-20)
(-0.0101444 2.19218 4.05906e-22)
(0.0017818 2.20195 0)
(0.0257114 1.94993 0)
(0.346572 1.25094 -1.12417e-19)
(0.362172 1.08135 -2.4199e-19)
(0.177018 0.342659 4.22618e-19)
(1.00554 -0.0111948 0)
(1.00751 -0.0074594 1.19965e-19)
(-0.274753 1.4473 0)
(-0.275128 1.31329 0)
(1.00196 0.0034299 7.87851e-22)
(1.00387 0.010051 2.4378e-19)
(-0.114473 2.27377 2.98381e-20)
(-0.100541 2.31695 0)
(0.0356497 3.1797 8.51289e-20)
(0.389003 3.48451 0)
(1.14442 0.645271 9.41726e-21)
(1.01325 0.0135093 -7.75738e-22)
(1.02098 -0.0108405 0)
(1.00175 0.000144702 2.97392e-23)
(0.101819 1.34932 0)
(0.153762 2.57302 0)
(0.0924873 1.23451 0)
(0.000813268 2.61973 -5.04265e-20)
(-0.0254107 2.58775 -5.42435e-20)
(1.00674 0.0301982 1.08534e-21)
(1.06053 0.00083985 0)
(1.08683 0.0125633 0)
(-0.345315 2.00184 0)
(-0.239817 2.54732 0)
(-0.149316 1.06559 0)
(0.286664 1.45592 -1.43365e-19)
(1.01122 -0.00996061 0)
(1.00937 -0.0153625 0)
(1.00245 0.00065402 1.52156e-19)
(1.00538 -0.00478534 -1.80871e-19)
(1.0012 -0.00109891 0)
(-0.401248 1.80394 0)
(-0.34321 1.47961 0)
(-0.349 1.67296 0)
(-0.163559 1.0428 0)
(-0.250199 1.15817 0)
(-0.152607 1.03313 0)
(1.03385 -0.0074057 0)
(1.02129 0.0162016 -3.7643e-22)
(0.799517 1.24428 1.71765e-19)
(1.00222 0.000413689 -1.51763e-19)
(1.00403 0.00533231 1.81333e-19)
(1.00116 0.00209994 0)
(1.01346 0.0105411 1.49279e-19)
(1.00859 0.00866804 -1.82979e-19)
(1.00931 0.0156677 0)
(-0.224097 2.55002 0)
(-0.17391 2.46013 -1.27398e-19)
(-0.183832 2.44636 9.8995e-20)
(1.20507 0.251818 5.74499e-20)
(1.14038 0.0826885 0)
(0.0469353 3.07635 -2.65411e-19)
(0.065869 2.85132 -2.00862e-20)
(0.144623 3.19449 4.23851e-19)
(0.141247 3.22378 -2.23334e-20)
(0.133098 3.23729 0)
(0.0193065 3.13746 6.33809e-20)
(0.0771576 3.16095 2.56654e-19)
(0.069175 3.18641 -1.22421e-19)
(0.0237782 3.12889 0)
(0.669511 0.303243 0)
(0.57613 0.363788 0)
(1.09649 0.665305 -4.92635e-20)
(1.12527 0.800804 8.82122e-20)
(1.15964 0.554618 0)
(1.20538 0.503908 0)
(1.01639 0.0136225 -2.80715e-19)
(1.01512 0.0147875 3.5108e-19)
(1.02499 -0.0102664 0)
(1.02289 -0.0126987 0)
(1.00637 0.00252242 0)
(1.01013 0.00356109 0)
(1.00449 0.00187268 0)
(1.00983 0.00590748 0)
(1.00818 0.00620249 0)
(1.00439 0.0044561 0)
(0.0915317 1.34534 0)
(0.0880653 1.31219 0)
(0.112663 1.37468 0)
(0.132174 1.40074 0)
(0.146321 2.59542 0)
(0.189451 2.65352 -1.17957e-19)
(0.102384 2.65369 0)
(0.0877808 2.65421 2.20473e-20)
(0.0433395 2.68035 3.66725e-20)
(0.11739 1.20346 0)
(0.081966 1.08025 0)
(0.0676975 1.27801 0)
(0.0148635 1.23518 0)
(0.00933907 1.97323 5.76702e-20)
(-0.0387656 2.60772 -7.18628e-20)
(-0.0169297 2.66181 -7.84554e-20)
(-0.0261007 2.66569 0)
(-0.0632845 2.62132 1.54444e-19)
(-0.0610511 2.60694 9.52522e-20)
(-0.00342839 1.98677 -4.08601e-20)
(-0.0425847 2.44375 9.3551e-20)
(-0.0137933 2.44757 9.38757e-20)
(1.01545 0.035348 2.79368e-19)
(1.01012 0.0190977 -3.46364e-19)
(1.00705 0.0420759 -2.83731e-19)
(0.989863 0.0232152 3.62445e-19)
(1.06142 0.00507566 0)
(1.04706 -0.00989776 0)
(1.08674 0.0220249 0)
(1.06972 0.00779305 0)
(1.06663 -0.00467685 0)
(1.12208 0.0760881 0)
(1.09882 0.0351852 0)
(1.10188 0.0245205 0)
(-0.207008 2.34943 8.01248e-21)
(-0.360923 2.21504 0)
(-0.277883 2.22687 0)
(-0.234521 2.60782 -7.16535e-20)
(-0.212407 2.5581 1.53932e-21)
(-0.370522 1.95663 -1.23399e-19)
(-0.371167 1.82362 1.22839e-19)
(-0.30834 1.43153 0)
(-0.35251 1.46135 0)
(-0.368067 1.50698 0)
(-0.0948719 1.04203 0)
(-0.03269 0.910839 0)
(0.371345 1.47028 2.68508e-19)
(0.414049 1.48021 1.10897e-19)
(0.589438 2.43794 -7.51003e-20)
(0.408223 2.53579 2.09948e-19)
(0.349742 2.08711 -6.11372e-21)
(1.02096 -0.00828106 0)
(1.01542 -0.0100024 0)
(1.01484 -0.0161848 0)
(1.00739 -0.00142752 0)
(1.00499 -0.00113847 0)
(1.00769 -0.00472228 0)
(1.00915 -0.00391791 0)
(1.01404 -0.00458929 0)
(1.0222 0.0160448 2.72778e-19)
(1.0185 0.0162817 -3.46395e-19)
(1.02256 0.0179968 -2.71501e-19)
(1.02016 0.0172454 3.40708e-19)
(0.765201 1.29556 0)
(0.701344 1.34997 2.00979e-19)
(0.868976 1.20274 1.11298e-19)
(0.930341 1.14696 -1.4804e-19)
(1.16072 2.60674 -1.26245e-19)
(0.829703 0.0990604 1.56438e-19)
(1.1342 0.105737 0)
(1.18484 0.190912 -4.33728e-20)
(1.17441 0.151023 -1.79569e-21)
(0.999952 0.127148 0)
(0.160883 2.96071 8.97986e-20)
(0.118085 2.86754 -3.64279e-19)
(0.0323436 2.37764 2.33743e-19)
(0.0967398 0.0393592 -9.46703e-20)
(0.337498 3.42559 -1.53266e-19)
(0.196094 3.32123 0)
(0.229207 3.35765 1.99462e-19)
(0.257494 3.04131 -4.03388e-19)
(0.360707 3.20215 0)
(0.00715644 3.12029 1.36218e-20)
(0.0178257 3.12895 -1.70097e-19)
(0.0160319 3.12483 2.49465e-19)
(0.0359109 3.13962 0)
(0.0338562 3.15065 0)
(1.19418 2.64689 0)
(0.548023 0.843468 -1.31537e-19)
(1.05499 0.969539 -5.39989e-20)
(0.960465 1.05988 0)
(0.804401 0.942563 -8.35612e-23)
(1.04232 0.872031 1.11196e-20)
(0.35719 0.418196 -2.63005e-19)
(0.703081 0.325997 -8.61286e-21)
(0.690791 0.25333 1.17208e-19)
(0.58713 0.406226 8.88451e-21)
(0.510008 0.368641 -3.61371e-19)
(0.673151 0.352229 0)
(0.701695 0.430287 1.93537e-19)
(0.709059 0.423198 0)
(0.621883 0.39548 0)
(0.610219 0.308969 0)
(0.780113 0.609911 9.03366e-20)
(1.18823 0.278688 -5.85612e-20)
(1.19699 0.408275 0)
(1.22144 0.352528 0)
(0.767189 0.201724 1.74039e-19)
(0.827069 0.541938 -1.01905e-19)
(0.734785 0.519303 1.72606e-19)
(0.927958 0.416116 -1.75297e-19)
(1.02032 0.0145425 1.8595e-19)
(1.01826 0.014283 -1.88492e-19)
(1.01592 0.0163449 0)
(1.03539 -0.00680801 0)
(1.02928 -0.00910479 -1.732e-19)
(1.02696 -0.0132723 1.71763e-19)
(1.02526 0.00926887 0)
(1.0238 0.0129088 0)
(1.01122 0.00386192 0)
(1.01439 0.00872283 0)
(1.01473 0.0037543 0)
(1.01386 0.00285549 0)
(0.0705029 1.32967 0)
(0.0632954 1.28462 0)
(0.147303 1.32869 8.94974e-20)
(0.264873 1.45415 8.14328e-20)
(0.152873 1.42991 1.77979e-19)
(0.188038 1.43925 -2.87544e-19)
(0.169694 1.36193 0)
(0.120376 1.58945 7.22683e-20)
(0.105841 1.55472 0)
(0.352125 2.03721 8.83475e-21)
(0.356833 2.38021 1.35312e-19)
(0.184508 1.43655 -6.32013e-20)
(0.254197 1.35349 5.62209e-20)
(0.192135 1.34339 -4.50283e-20)
(0.255986 1.29798 7.67311e-20)
(0.223422 1.57634 0)
(0.255107 1.60797 -4.21809e-20)
(0.0365952 2.27003 2.281e-20)
(0.0417988 2.67071 0)
(0.0594929 2.41063 -3.16934e-20)
(0.050635 2.43275 0)
(0.0757501 2.66536 -2.49117e-20)
(0.0538999 2.6985 0)
(0.110991 1.45329 1.01881e-19)
(0.0235822 1.48904 0)
(0.0406361 1.39781 0)
(0.112837 1.39492 -1.13844e-19)
(-0.00475117 2.64697 -1.30185e-20)
(0.0251116 2.6946 -5.18851e-20)
(0.00928911 2.71304 -3.35336e-22)
(0.0974198 1.95072 -8.29599e-20)
(0.05598 1.68842 -2.74628e-20)
(0.0675762 1.05356 0)
(0.0423294 0.941371 0)
(0.0341199 1.5695 -1.30224e-19)
(0.0357068 1.43602 -1.24885e-19)
(0.0492468 1.51337 1.59866e-19)
(0.0324582 1.59321 0)
(-0.250805 2.47148 3.26106e-19)
(-0.246104 2.62265 -1.27949e-19)
(-0.225489 2.58628 3.3025e-20)
(0.0285201 1.98561 1.00113e-19)
(-0.0971119 2.56945 4.0698e-20)
(-0.0427969 2.49959 -1.2819e-19)
(1.02128 0.0205811 -1.83417e-19)
(1.01855 0.0255329 1.84772e-19)
(1.01573 0.017461 0)
(1.01927 0.0623032 2.56485e-19)
(0.997491 0.0550061 -2.97403e-19)
(0.960963 0.0355817 3.38181e-19)
(1.01861 0.0905217 -3.41617e-20)
(1.04145 -0.00648836 0)
(1.04913 -0.00269589 1.61071e-19)
(1.03779 -0.0110558 -1.6064e-19)
(1.06767 0.0325599 -9.18234e-21)
(1.06162 0.0165212 8.03915e-20)
(1.06193 0.0430328 0)
(1.05691 0.0378389 -2.92682e-20)
(1.03425 0.0364437 0)
(1.02864 0.0332631 0)
(1.02745 0.012257 0)
(1.02454 0.0153485 0)
(1.03899 0.0279588 6.05382e-20)
(1.0377 0.0225821 -1.35613e-19)
(1.05072 0.0256027 -6.32311e-20)
(1.04864 0.025605 -7.08468e-20)
(1.07129 0.0497147 1.33638e-19)
(1.08457 0.0422678 0)
(1.09456 0.0885647 0)
(-0.277901 2.4727 1.38286e-19)
(-0.347531 2.2449 1.17012e-20)
(-0.331238 2.29537 0)
(-0.253667 2.49281 -1.39005e-19)
(-0.237115 2.39773 -1.91362e-20)
(-0.215701 2.46636 2.6262e-20)
(-0.102022 2.62777 -7.75859e-20)
(-0.163017 2.62636 8.05159e-21)
(-0.132582 2.58507 -3.08869e-20)
(-0.16865 2.63126 5.09937e-20)
(-0.118911 2.58752 -6.30432e-20)
(-0.313158 1.71557 -8.36851e-21)
(-0.300729 2.00525 -1.98807e-19)
(0.356047 1.40402 -1.30083e-19)
(0.354292 1.35358 -1.09466e-19)
(0.644776 1.39931 -1.94267e-19)
(0.510853 1.46665 -1.07149e-19)
(0.569748 1.43947 0)
(0.579623 2.41394 6.56715e-20)
(0.648362 2.40803 1.10125e-19)
(0.406908 2.51217 3.57994e-20)
(0.40882 2.55804 -1.16031e-19)
(0.524027 2.51596 1.47916e-19)
(0.542432 2.45191 0)
(0.481197 2.50345 -1.74268e-19)
(0.236222 2.58349 3.22343e-19)
(0.348453 2.56561 -3.23825e-20)
(0.282536 2.64374 -4.60912e-19)
(0.921965 2.38206 1.76872e-19)
(0.824038 2.37963 0)
(1.01101 2.2225e-05 6.05946e-21)
(1.01529 -0.00554558 -5.02414e-21)
(1.01736 -0.00359174 -9.00132e-20)
(1.01477 -0.00116163 9.10652e-20)
(1.01219 0.000704246 0)
(0.62889 1.26409 0)
(0.640169 1.15301 0)
(0.737477 1.05782 0)
(0.638326 1.11858 0)
(1.186 2.61887 2.71839e-20)
(1.077 2.36475 0)
(0.857042 2.19658 5.35412e-23)
(0.822909 2.4681 0)
(0.92005 2.55307 -4.22445e-20)
(0.959439 2.50878 2.74679e-20)
(0.833776 0.147951 0)
(0.808959 0.133675 4.37566e-20)
(0.925397 0.122004 2.39765e-19)
(0.850447 0.114463 -9.28663e-20)
(0.838549 0.0600047 -2.82243e-19)
(1.05298 0.220753 -1.90977e-19)
(0.979284 0.282243 -6.3414e-21)
(0.907947 0.266137 2.21092e-19)
(0.992538 0.204362 1.74651e-19)
(0.945355 0.160033 -3.10111e-19)
(0.918318 0.169169 3.93028e-20)
(0.941193 0.226881 -8.08158e-20)
(0.923256 0.193247 0)
(0.987371 0.160702 1.50822e-19)
(1.03596 0.16941 0)
(1.03001 0.199235 0)
(1.08667 0.111962 6.02821e-20)
(1.06777 0.162465 -5.69092e-21)
(1.05047 0.224087 -3.1966e-20)
(1.08772 0.196881 0)
(1.0244 0.0412509 1.41344e-19)
(1.04629 0.0496588 1.70004e-19)
(1.03568 0.0376905 -1.38893e-19)
(1.04762 0.0557413 -1.14408e-19)
(1.02057 0.0639099 -1.81455e-19)
(0.990377 0.128653 0)
(1.00598 0.0871736 0)
(0.974567 0.0535063 -1.21122e-19)
(0.927003 0.0642151 4.86797e-20)
(1.04195 0.0870987 1.59895e-19)
(1.06632 0.108937 -1.77153e-19)
(1.07247 0.137653 1.57748e-19)
(1.03116 0.130616 0)
(1.07232 0.0956805 0)
(1.06086 0.074915 -7.29319e-20)
(1.05159 0.0841979 -1.29599e-19)
(0.588322 1.09562 -6.4285e-21)
(0.628455 1.40427 4.23372e-20)
(1.16347 2.74283 -2.53183e-21)
(1.23977 3.07851 -2.36387e-20)
(1.25192 2.71565 1.66174e-19)
(1.28292 2.71311 -1.22407e-19)
(1.16927 2.35732 8.5783e-21)
(1.22836 2.97255 3.92341e-20)
(1.24982 2.94152 -2.18306e-20)
(1.24503 3.23452 -1.2209e-19)
(1.36795 2.9706 1.40872e-19)
(1.30607 2.89535 0)
(0.549477 0.847037 -1.01549e-20)
(0.121627 1.25786 1.89618e-19)
(0.544764 0.474035 1.74868e-19)
(0.354124 0.222363 1.85063e-19)
(0.526373 0.411927 2.0404e-19)
(0.547451 0.484008 -3.27564e-19)
(0.539496 0.50319 2.68416e-19)
(0.491138 0.423693 -1.04207e-19)
(0.419696 0.358416 2.3721e-19)
(0.767984 0.257893 -9.82703e-20)
(0.726481 0.290988 0)
(0.723149 0.229731 3.83717e-21)
(0.71901 0.521531 1.00241e-19)
(0.692073 0.486231 -3.69335e-19)
(0.599921 0.490758 5.74547e-21)
(0.61902 0.473474 0)
(0.664107 0.736884 9.46259e-20)
(0.821914 0.773244 6.2768e-20)
(0.742761 0.855235 -7.57404e-20)
(0.85565 0.797015 -2.42154e-20)
(0.881595 0.824864 -1.14943e-21)
(0.888717 0.828878 1.18085e-21)
(0.826782 0.632404 -1.52421e-19)
(0.898936 0.699004 2.25704e-20)
(0.950943 0.702088 0)
(0.931723 0.67078 -3.2067e-20)
(1.00463 0.307206 4.51006e-20)
(1.09291 0.282399 4.31207e-20)
(1.03693 0.258003 7.67263e-20)
(0.988131 0.350997 -9.65984e-20)
(1.02759 0.415583 0)
(1.07055 0.400258 0)
(0.899361 0.34459 2.43057e-21)
(0.8391 0.285751 0)
(0.860245 0.276249 1.08192e-19)
(0.898242 0.273344 -3.92433e-21)
(0.91705 0.417923 4.84777e-19)
(0.875356 0.483146 1.251e-19)
(0.878062 0.446398 -1.4601e-19)
(0.806266 0.435223 1.56721e-19)
(0.790861 0.435982 1.00543e-19)
(0.75848 0.420156 -9.78615e-20)
(1.02753 -0.000723933 1.47051e-19)
(1.02002 -0.000153199 0)
(1.01856 0.000647443 9.77957e-20)
(1.02099 -0.00223267 -2.1982e-19)
(1.02212 0.00434299 1.06987e-19)
(1.02048 0.0108525 -2.2527e-19)
(1.02167 0.0102442 0)
(1.02131 0.0102415 -4.68529e-20)
(1.01607 0.00755265 1.17329e-19)
(1.01695 0.0100751 -5.94521e-20)
(1.0176 0.00936052 4.37163e-20)
(0.0612291 1.30781 0)
(0.0506994 1.36444 0)
(0.0500199 1.31497 0)
(0.0341255 1.26666 0)
(0.0657394 1.36941 -2.02971e-19)
(0.0830382 1.33734 6.73923e-20)
(0.106291 1.49328 4.08165e-20)
(0.086982 1.33417 -4.53432e-20)
(0.0319789 1.45112 1.25766e-19)
(0.0323982 1.44026 -9.53438e-20)
(0.0591826 1.35184 4.13094e-22)
(0.0545528 1.35459 1.24054e-19)
(0.0523924 1.33662 1.79233e-20)
(0.0338411 1.37511 1.61808e-20)
(0.100311 2.38498 3.51986e-20)
(0.088998 2.43215 0)
(0.157118 2.08485 2.22722e-21)
(0.101143 1.70236 -2.59902e-20)
(0.232803 2.07104 -1.52094e-21)
(0.211998 2.45891 0)
(0.273325 2.41411 -1.00807e-19)
(0.30573 2.41514 7.14657e-20)
(0.220721 2.02448 -9.34888e-21)
(0.14226 2.19026 2.08802e-20)
(0.151202 2.3169 0)
(0.0213205 1.8815 1.31821e-19)
(-0.00285367 2.41118 1.20757e-19)
(-0.0309879 2.15872 0)
(0.000729574 2.46489 -5.83505e-21)
(0.0277348 2.31756 -5.73468e-20)
(0.144828 1.44468 -2.32857e-20)
(0.166234 1.35361 4.0058e-19)
(0.110581 1.41753 -1.36678e-19)
(0.138913 1.48064 -1.09078e-19)
(0.13083 1.49603 0)
(0.107512 1.38506 0)
(-0.0658133 1.00346 -1.71985e-19)
(0.0198429 1.25319 5.52102e-20)
(0.0980161 1.31231 0)
(0.00456267 0.9698 -1.20468e-19)
(-0.016623 0.877179 2.46154e-19)
(1.03962 0.00985947 0)
(1.04496 0.00641527 -1.50198e-20)
(1.03853 0.0200271 -1.08462e-19)
(1.04776 0.0172128 0)
(1.05151 0.0170109 0)
(1.03582 0.0101752 -2.70304e-21)
(1.03182 0.00978126 1.77147e-19)
(1.03119 0.0153529 2.16576e-19)
(1.02631 0.0189603 0)
(1.02432 0.0196441 0)
(1.03477 0.0230248 1.09319e-19)
(1.02649 0.0246178 0)
(1.02628 0.0233967 0)
(-0.0951058 2.29578 0)
(-0.218635 2.09501 -9.87946e-21)
(-0.203311 2.21274 -7.16017e-20)
(0.0320254 1.25498 0)
(-0.118266 1.85001 -1.23838e-19)
(-0.135689 1.554 7.61156e-20)
(-0.0723438 1.22422 0)
(0.384002 1.70263 0)
(0.358127 1.27626 1.74574e-19)
(0.310018 1.33857 0)
(0.412956 1.27231 -2.36485e-19)
(0.456969 1.4418 0)
(0.43686 1.38487 1.13545e-19)
(1.02579 2.69518 -3.53593e-21)
(0.95128 2.41784 -2.16635e-19)
(0.891223 2.18174 2.58191e-19)
(0.846009 2.37 7.18877e-20)
(0.835442 2.5175 0)
(0.901709 2.50865 0)
(0.883946 2.38438 0)
(0.899393 2.35199 -2.58227e-19)
(0.687784 2.48458 -5.49034e-20)
(0.797293 2.47995 -1.59052e-20)
(0.808348 2.44943 1.26025e-20)
(0.678943 2.38805 0)
(0.783148 2.38727 0)
(0.739384 2.39654 -1.13676e-19)
(0.764126 2.50619 0)
(0.613997 1.09084 0)
(0.490828 0.930181 -6.56039e-20)
(0.569764 0.95093 -4.79356e-21)
(0.532145 1.06376 0)
(0.535498 1.01695 9.98824e-20)
(0.765821 0.879109 -1.24479e-20)
(0.770015 0.999713 0)
(0.744278 0.945925 7.40693e-21)
(0.635233 1.0329 0)
(0.64255 0.938035 0)
(1.16701 2.7582 -1.82413e-20)
(1.14457 2.82371 1.79542e-20)
(0.942931 2.34101 -5.84173e-20)
(0.904014 2.32038 -3.83646e-21)
(1.12934 2.7307 0)
(1.08036 2.70028 5.02818e-21)
(1.08695 2.48434 -7.01034e-20)
(0.983322 2.23175 -1.34664e-20)
(0.501504 1.37341 0)
(0.508673 1.0792 5.63555e-21)
(0.548862 1.13264 0)
(0.863709 0.214859 0)
(0.812442 0.171963 0)
(0.769765 0.148054 0)
(0.854078 0.222499 -1.71007e-19)
(0.786626 0.216662 1.03843e-19)
(0.935723 0.0518571 -1.01035e-19)
(0.952217 0.0994297 0)
(0.926121 0.104752 4.43556e-20)
(0.87419 0.0814152 1.80439e-19)
(0.864043 0.0425689 -1.12045e-19)
(1.1754 3.36943 -3.84747e-19)
(1.2269 3.29071 0)
(1.1412 3.38752 -7.37096e-19)
(0.640736 3.54597 6.48138e-19)
(0.853227 3.1113 1.05644e-19)
(0.51424 0.862908 1.45413e-19)
(0.426568 0.859407 0)
(0.33061 0.516968 -4.21844e-20)
(0.447053 0.685151 2.1528e-19)
(0.539402 0.485188 -5.71647e-20)
(0.513384 0.530761 6.53466e-20)
(0.644448 0.540897 1.40445e-19)
(0.678635 0.555516 0)
(0.635792 0.619615 0)
(0.592121 0.557819 0)
(0.942214 0.588249 5.85406e-23)
(0.87736 0.531319 -1.20424e-19)
(0.897415 0.560891 7.87645e-20)
(0.932149 0.500665 -9.1832e-20)
(1.0407 0.473077 0)
(1.03124 0.557177 -1.552e-20)
(0.832602 0.388482 -2.24506e-19)
(0.838524 0.373791 -2.61737e-19)
(0.788669 0.380343 1.74828e-19)
(0.784127 0.357233 -1.87706e-19)
(0.836508 0.314267 -1.42664e-19)
(0.789099 0.312579 1.75697e-19)
(1.0265 0.00543824 -1.13355e-19)
(1.02618 0.00573001 2.34455e-19)
(1.02944 -0.00110081 1.41175e-19)
(1.03298 5.17756e-05 -1.70884e-19)
(1.03281 0.00676501 0)
(1.02998 0.0077949 -2.78641e-19)
(0.048797 1.64369 -1.34199e-20)
(0.0353108 1.56834 0)
(0.0882036 1.69202 -1.2129e-19)
(0.080207 1.67118 1.12122e-19)
(0.0980457 1.51744 -7.62501e-20)
(0.0839973 1.4922 0)
(0.15949 1.91389 0)
(0.112924 1.59467 5.25969e-20)
(0.103613 1.44433 -4.71289e-20)
(0.0174598 1.72746 9.52467e-21)
(-0.034969 2.18986 9.40127e-20)
(-0.00360102 2.16513 -3.22624e-20)
(0.494821 1.38182 8.87366e-20)
(0.488299 1.39163 -9.30698e-20)
(0.435083 1.27123 1.16502e-19)
(0.429965 1.29327 -6.37555e-21)
(0.61771 1.28486 0)
(0.534336 1.37119 1.62448e-19)
(0.551132 1.38205 -1.57646e-19)
(0.441825 1.26 -1.12873e-19)
(0.497583 1.21714 0)
(0.545957 1.18238 0)
(0.649853 2.44237 8.23878e-20)
(0.667312 2.47728 3.03111e-19)
(0.709658 2.49318 -2.07776e-19)
(0.61211 2.48262 -5.88115e-20)
(0.563736 2.56882 6.54779e-20)
(0.524864 2.54856 -1.77072e-19)
(0.970176 2.37572 -1.4101e-19)
(1.00946 2.39079 0)
(0.911947 2.16218 -1.73356e-19)
(1.04902 2.68246 0)
(1.05129 2.6693 0)
(0.60938 2.25712 2.68305e-20)
(1.0315 3.15989 1.43385e-19)
(0.899317 3.01915 -9.13512e-20)
(0.288984 0.924562 0)
(0.328243 0.767472 -8.61238e-20)
(0.470594 0.736403 -6.24698e-20)
(0.402479 1.98442 0)
(0.479061 2.78774 -7.47937e-20)
(0.435942 2.5717 0)
(0.673103 0.680939 -1.97219e-19)
(0.75455 0.683999 2.5615e-19)
(0.77803 0.621236 -2.49888e-19)
(0.658855 0.647076 -2.72069e-20)
(0.707526 0.600529 -1.10967e-19)
(1.01635 2.76679 -1.08285e-19)
(1.04738 2.83441 7.59525e-20)
(0.658491 2.14207 1.2988e-19)
(0.58879 1.72293 -9.65336e-20)
(0.714434 1.91305 -2.5592e-20)
(0.998872 2.47125 -3.25912e-20)
(0.999248 2.45834 -2.19644e-20)
(0.673101 1.87838 7.46393e-22)
(0.467013 1.34688 6.80547e-22)
)
;

boundaryField
{
    wall-4
    {
        type            noSlip;
    }
    velocity-inlet-5
    {
        type            fixedValue;
        value           uniform (1 0 0);
    }
    velocity-inlet-6
    {
        type            fixedValue;
        value           uniform (0 3 0);
    }
    pressure-outlet-7
    {
        type            zeroGradient;
    }
    wall-8
    {
        type            noSlip;
    }
    frontAndBackPlanes
    {
        type            empty;
    }
}


// ************************************************************************* //
