/*--------------------------------*- C++ -*----------------------------------*\
| =========                 |                                                 |
| \\      /  F ield         | OpenFOAM: The Open Source CFD Toolbox           |
|  \\    /   O peration     | Version:  4.0                                   |
|   \\  /    A nd           | Web:      www.OpenFOAM.org                      |
|    \\/     M anipulation  |                                                 |
\*---------------------------------------------------------------------------*/
FoamFile
{
    version     2.0;
    format      ascii;
    class       volScalarField;
    location    "18";
    object      p;
}
// * * * * * * * * * * * * * * * * * * * * * * * * * * * * * * * * * * * * * //

dimensions      [0 2 -2 0 0 0 0];

internalField   nonuniform List<scalar> 
918
(
0.25456
0.940231
0.00957329
0.253612
-0.00105623
0.907322
-0.812642
0.435909
0.234603
-0.405908
-0.00930665
0.223941
0.767932
0.533446
-1.43974
0.00871044
0.390544
-0.685738
0.233385
0.0004434
0.51183
0.241353
0.244323
0.234869
0.293705
0.523931
0.648374
0.00236623
-0.00191201
-0.00350178
0.00397527
-0.00526075
0.00160285
0.790952
0.84205
0.864713
0.204196
0.0333575
-0.661625
-0.740912
-0.725622
-0.863908
0.423659
0.428165
-0.459731
0.43911
0.454865
0.222083
0.233882
0.234769
0.236139
0.234959
0.236395
0.152194
-0.4342
-0.458442
-0.36916
-0.317299
0.0326552
-0.0227586
-0.0422417
0.00479943
0.00468783
0.162146
0.220729
0.219643
0.229638
0.239103
0.879778
0.851677
0.877808
0.791572
0.808033
0.745879
0.718326
0.554612
0.576178
0.51795
0.506588
-1.88273
-2.85624
-0.837655
-0.577512
0.000395108
0.013175
0.0183024
0.376852
0.385377
0.38706
0.398949
0.805883
-0.67697
-0.8062
0.233361
0.232074
0.240822
0.241453
0.237446
0.236539
0.00758957
0.0133145
-0.00927623
-0.00214736
-0.0034793
0.494122
0.489797
0.235379
0.232417
0.246983
0.268936
0.257899
0.00520315
0.305065
0.327038
0.327941
0.504221
0.503381
0.510405
0.621901
0.584357
0.685678
0.709099
0.0121893
0.00347309
0.00542064
0.00447926
0.00458644
0.199947
0.192876
0.216799
0.207511
0.209754
-0.0508048
-0.186035
0.118017
0.140876
-0.568405
-0.635908
-0.739509
-0.75711
-0.894514
0.248649
0.411402
0.41501
-0.474992
-0.391755
-0.539904
-0.318256
-0.390682
0.213709
0.219865
0.215423
0.229657
0.224179
0.226191
0.238111
0.235174
0.236746
0.216217
0.318896
0.0976402
0.0749815
-0.556047
-0.477262
-0.547475
-0.253364
-0.199787
0.0248124
0.0169693
0.016821
0.0279794
-0.152804
-0.0686913
-0.111308
0.0113553
0.0107469
0.155309
0.146311
0.170837
0.177079
0.212127
0.213113
0.216782
0.214942
0.66906
0.691524
0.698937
0.672594
-3.86787
-6.6915
-0.24327
-0.0987562
0.00289084
0.00264263
0.00178636
0.00393711
0.00262598
0.00108576
0.0193822
0.0183793
0.0187823
0.0215595
0.360503
0.36552
0.726604
0.714309
0.711504
0.672612
0.221327
0.223364
0.229156
0.225007
0.0158806
0.0163882
0.0164461
0.455998
0.475872
0.473607
-0.0300554
-0.118479
0.05242
0.0789161
0.34763
0.332631
0.349763
0.392755
0.42907
0.716559
0.734849
0.733153
0.741541
0.785541
0.801916
0.767254
0.182126
0.188909
0.185356
0.220585
0.218156
0.218906
0.21286
0.215439
0.212106
-0.340122
-0.726302
0.204872
0.218401
0.184477
0.19049
0.339294
0.411619
0.392156
0.402772
0.405927
-0.25444
-0.320835
0.030305
0.0171648
0.103866
0.135269
0.11914
0.640276
0.600526
0.650516
0.624071
0.585517
0.611782
-0.678332
-2.20868
-1.30911
0.268022
0.0726153
0.164558
0.030935
0.0169944
0.0234034
0.684908
0.755877
0.390692
0.586496
0.568932
0.470957
0.502441
0.557411
0.478837
0.515978
0.554713
0.536223
0.201659
0.202639
0.179185
0.480035
0.537396
-0.144298
-0.192557
-0.249365
-0.00790604
0.000153197
0.00409205
0.722297
0.602399
0.68399
0.232279
0.23295
0.0122556
0.0212719
0.236861
0.236776
0.00632362
0.0062271
0.144526
-1.1526
-0.149026
0.225351
0.215914
0.232475
-0.439124
0.0603478
-0.0325362
0.106063
0.0682528
0.223382
0.171618
0.138194
0.00645502
0.0163936
0.0027058
-0.515713
0.229967
0.228308
0.23209
0.233103
0.233799
0.00714016
0.00862929
0.00616891
0.00338714
0.00468057
0.00151648
0.198858
0.213158
-0.461968
0.232016
0.234297
0.234026
0.227183
0.23264
0.230891
0.0127958
0.00752313
0.00724159
-0.0434451
0.0706366
0.403307
0.51381
0.354443
0.125518
-0.120886
0.298252
0.367753
0.263739
0.432552
0.396115
0.422939
-0.089261
-0.235907
-0.0824809
-0.139504
0.223021
0.221667
0.214238
0.212193
0.227405
0.225577
0.229973
0.227047
0.229792
0.231223
-0.451363
-0.362445
-0.44288
-0.453456
0.00788644
0.292339
-0.0793165
0.0274856
0.00176582
-0.0150623
-0.00107785
-0.0555602
-0.0674045
0.000707724
0.0548711
0.0841169
0.0353627
0.0612675
0.0232447
0.00355718
0.0281788
0.0121681
0.21811
0.214941
0.222555
0.229463
0.179131
0.181689
0.153847
0.169355
0.158797
0.102715
0.135365
0.114185
0.00675704
0.00776676
0.00556867
0.0195329
0.020643
0.00814574
0.00779633
0.0126983
0.00820352
0.00732599
0.00620192
0.0117709
-0.479266
-0.585549
0.689301
0.640532
-0.0496489
0.219083
0.225505
0.222296
0.226872
0.230147
0.230975
0.228847
0.225196
0.213776
0.215853
0.211906
0.211512
-0.406919
-0.539843
-0.358902
-0.420974
-0.160185
0.337454
0.0827809
0.0239813
0.0196625
0.229134
0.614677
0.426589
0.466435
0.493317
-0.652757
-0.249666
-0.581833
0.0341234
-0.148335
0.402749
0.455692
0.47822
0.424016
0.37227
-0.413071
0.225277
-0.333594
-0.293191
-0.104832
-0.203946
0.448905
0.3802
0.387845
0.413005
0.437624
0.388436
0.368884
0.365336
0.402052
0.406408
0.203277
-0.0108824
-0.0572173
-0.0924675
0.368506
0.243074
0.299496
0.217488
0.217599
0.220904
0.219417
0.202876
0.210043
0.205963
0.20977
0.213266
0.223176
0.222819
0.218541
0.221005
-0.296224
-0.254187
-0.431288
-0.443195
-0.460989
-0.495409
-0.416662
-0.517273
-0.646116
-0.0216034
0.0218532
-0.416696
-0.380074
-0.385651
-0.343213
-0.178883
-0.102663
-0.190738
-0.00807657
-0.17107
-0.135428
-0.0118706
-0.0216293
-0.0356154
-0.0506414
-0.121921
-0.0607915
0.0562711
0.00187829
0.0146006
0.0216686
0.0145112
0.000830934
0.00797462
-0.15094
-0.160246
-0.123611
-0.199669
0.0168201
0.0197756
0.0225729
0.0260714
0.032831
0.0341295
0.210876
0.211527
0.210547
0.22552
0.236726
0.251552
0.219897
0.197662
0.19003
0.190461
0.168781
0.176103
0.173948
0.185152
0.202582
0.210148
0.207885
0.210722
0.196244
0.197628
0.185754
0.189537
0.17002
0.152753
0.1429
0.0127746
0.00807789
0.00904683
0.00996875
0.0079685
0.0085712
0.0338179
0.0289849
0.0329789
0.0255912
0.0212295
0.0144631
0.0131942
-0.391109
-0.303932
-0.487085
-0.522864
-0.585465
0.594503
0.722471
0.545077
0.29832
0.320103
0.542131
0.666567
0.276722
0.461644
0.514885
0.199629
0.498848
0.223647
0.223392
0.221466
0.220295
0.221457
-0.310661
-0.209543
-0.200033
-0.146505
-0.0291358
0.0843199
-0.0179429
-0.153386
-0.00814953
0.00516342
0.332335
0.346583
0.290527
0.317384
0.317022
0.144723
0.21835
0.274259
0.228743
0.2703
0.292158
0.257523
0.284283
0.231618
0.191598
0.190634
0.139952
0.157567
0.135039
0.118834
0.213051
0.193512
0.202743
0.195355
0.214192
0.242164
0.237084
0.259609
0.27346
0.202083
0.165077
0.173287
0.199849
0.163591
0.175307
0.188812
-0.0832236
-0.173437
-0.0970706
-0.400672
-0.306846
-0.322
-0.368575
-0.33108
-0.0423641
-0.753512
-0.716022
-1.3544
0.16446
0.646316
0.399649
0.369321
0.434651
0.409916
0.410597
0.44628
0.454032
0.356697
0.373484
0.375541
0.332211
0.357791
0.385452
0.383476
0.206823
0.0935324
0.0798952
0.0504429
-0.068567
-0.0385878
0.161604
0.0840782
0.0147042
0.0213214
0.179196
0.0758579
0.137686
0.173174
0.107379
0.0656575
0.257902
0.326516
0.316031
0.290756
0.207455
0.220341
0.243682
0.278778
0.306008
0.338591
0.211486
0.216041
0.21697
0.215179
0.212123
0.214803
0.21467
0.21741
0.218391
0.221117
0.22025
-0.109835
-0.140596
-0.210465
-0.149263
-0.520158
-0.553114
-0.582159
-0.507048
-0.208339
-0.255586
-0.4023
-0.314648
-0.240158
-0.204586
-0.358454
-0.319948
-0.322683
-0.450296
-0.074843
0.0795248
0.183566
0.073993
-0.130194
-0.100378
-0.0638089
-0.105121
-0.00814779
-0.00858516
-0.0487496
-0.102657
0.00233009
-0.00273384
-0.00565173
0.000336005
-0.0107587
0.00101619
0.0130217
0.0110027
0.0102008
0.0100859
0.0127054
0.200355
0.193552
0.193066
0.189177
0.188775
0.198211
0.20289
0.204511
0.209003
0.210853
0.203045
0.207579
0.210221
0.0207709
0.0181979
0.0214708
0.0112809
0.0142548
0.0145048
0.0115512
-0.187956
-0.211903
-0.177921
-0.292864
-0.418491
-0.373482
0.149971
0.122091
0.166905
0.372532
0.235083
0.14702
0.210916
0.32214
-0.0519743
0.165223
-0.0204631
0.580239
0.45632
0.594693
0.243121
-0.0741539
0.0682226
0.124863
-0.0690675
0.00316858
0.0202983
-0.0868856
-0.053469
-0.0244258
0.0718332
-0.0424313
-0.0670366
-0.31687
-0.142951
-0.00579195
-0.0278212
0.101153
0.162653
-0.0685648
-0.132878
-0.178405
0.320205
0.341072
0.358231
0.327275
0.352315
0.278179
0.27008
0.28756
0.29828
0.292148
-1.08909
-0.802657
-1.74265
-1.05723
-0.615931
0.190234
0.151108
0.430283
0.328779
0.411723
0.395472
0.35953
0.322693
0.3286
0.36582
0.0757589
0.181281
0.157865
0.161505
0.0689148
0.00589282
0.29192
0.286182
0.321221
0.345809
0.314966
0.347401
0.208439
0.207774
0.208894
0.205377
0.2052
0.206327
-0.336675
-0.296677
-0.411302
-0.441288
-0.496996
-0.454154
0.0270876
0.0142353
0.0130221
0.0145984
0.0269891
0.0282899
-0.162188
-0.209592
-0.272946
-0.252339
-0.30942
-0.371533
-0.390134
-0.292562
-0.215132
-0.217266
0.109281
0.368508
0.190345
0.369736
0.233149
0.279872
0.171814
0.166033
0.200523
0.0645011
0.132495
-0.129143
-0.61696
-0.529186
0.443512
0.463441
0.245043
0.0460708
-0.173846
0.025786
0.240711
0.181816
0.22205
0.288454
0.281236
-0.323169
-0.243354
-0.0199225
0.211695
-0.0783542
-0.0925103
-0.095022
0.0673192
0.000360967
)
;

boundaryField
{
    wall-4
    {
        type            zeroGradient;
    }
    velocity-inlet-5
    {
        type            zeroGradient;
    }
    velocity-inlet-6
    {
        type            zeroGradient;
    }
    pressure-outlet-7
    {
        type            fixedValue;
        value           uniform 0;
    }
    wall-8
    {
        type            zeroGradient;
    }
    frontAndBackPlanes
    {
        type            empty;
    }
}


// ************************************************************************* //
