/*--------------------------------*- C++ -*----------------------------------*\
| =========                 |                                                 |
| \\      /  F ield         | OpenFOAM: The Open Source CFD Toolbox           |
|  \\    /   O peration     | Version:  4.0                                   |
|   \\  /    A nd           | Web:      www.OpenFOAM.org                      |
|    \\/     M anipulation  |                                                 |
\*---------------------------------------------------------------------------*/
FoamFile
{
    version     2.0;
    format      ascii;
    class       volVectorField;
    location    "18";
    object      U;
}
// * * * * * * * * * * * * * * * * * * * * * * * * * * * * * * * * * * * * * //

dimensions      [0 1 -1 0 0 0 0];

internalField   nonuniform List<vector> 
918
(
(0.985148 -0.000523536 0)
(0.00500252 2.96626 0)
(-0.0101559 1.60812 0)
(0.979702 0.00214134 0)
(-0.0038434 1.57325 4.57078e-21)
(-0.00703308 2.94878 -1.92858e-18)
(0.854137 1.20544 7.13752e-19)
(0.449989 0.20711 -9.5458e-21)
(0.999909 -0.000313238 0)
(0.023813 0.82201 0)
(-0.0140495 1.23868 0)
(0.787921 -0.00860297 0)
(0.0111305 2.93031 0)
(0.00183895 2.79469 0)
(-0.0181585 3.1691 1.06646e-18)
(-0.0053163 1.48177 -1.0216e-20)
(0.568376 0.0967444 6.02437e-19)
(0.188004 1.16818 6.19355e-19)
(0.963079 0.00505843 0)
(-0.00327103 1.36845 0)
(0.148974 0.259106 -5.06382e-19)
(1.00196 -0.00501126 0)
(1.00026 -0.00972375 0)
(0.9758 -0.00647251 0)
(0.703595 -0.032183 0)
(0.0181073 2.63049 0)
(-0.0151217 2.91018 6.7156e-19)
(-0.0218983 1.62999 0)
(-0.0231061 1.74885 0)
(-0.0215658 1.62552 0)
(-0.00510857 1.83007 0)
(-0.00203407 1.59817 -3.61615e-21)
(-0.00468068 1.48664 0)
(-0.020616 2.98759 -6.76873e-23)
(-0.0167029 3.00531 1.49906e-18)
(0.00210693 3.00021 0)
(0.86751 -0.00851925 0)
(0.39095 0.927155 -1.45834e-20)
(0.8423 1.21805 -9.89964e-19)
(0.991903 1.06056 9.36324e-19)
(0.70813 1.31145 -1.65743e-19)
(0.702017 1.2939 9.28126e-19)
(0.47681 0.280895 9.31375e-21)
(0.467466 0.186166 0)
(1.17371 0.568018 0)
(0.450009 0.304302 4.37907e-20)
(0.410219 0.206366 -4.54405e-20)
(0.919643 -0.00751214 0)
(1.00035 8.52601e-05 0)
(0.999915 0.000316573 0)
(1.00342 -0.00777258 0)
(1.00095 -0.00106677 0)
(1.00018 -1.29827e-05 0)
(0.0400234 1.68687 -3.02551e-19)
(0.0359541 0.92004 0)
(0.0664447 0.851639 0)
(-0.0174188 0.914507 0)
(-0.0166912 0.851 0)
(0.0143562 1.57228 0)
(-0.0236396 1.3621 0)
(-0.0318291 1.18168 0)
(-0.0125059 1.43024 0)
(-0.00781644 1.27617 0)
(0.865234 -0.00061402 0)
(0.878305 0.00968771 0)
(0.799814 -0.00356305 0)
(0.871406 0.0149982 0)
(0.772306 -0.00955707 0)
(0.0147028 3.00039 7.07126e-19)
(0.0115291 3.00792 0)
(0.00613302 3.00284 0)
(0.0135586 2.99734 7.90211e-24)
(0.00798857 2.95845 -1.05096e-18)
(0.0144942 2.98203 0)
(0.010792 2.90363 0)
(0.0251531 2.93008 1.43748e-24)
(0.00408301 2.82521 0)
(0.0321031 2.91532 0)
(-0.00663658 2.74445 0)
(0.310607 3.56842 0)
(-0.132567 3.65076 0)
(0.140451 3.2597 -9.92501e-19)
(-0.0109061 2.99207 0)
(-0.0155188 1.80746 0)
(-0.00202332 1.62801 1.0078e-20)
(-0.00395214 1.49102 -1.69337e-20)
(0.620616 0.15575 -2.07525e-19)
(0.568809 0.0532438 -2.03638e-19)
(0.596331 0.193087 -6.25648e-19)
(0.542696 0.123166 -4.15425e-19)
(0.243861 0.924656 0)
(0.279989 1.32349 -6.34849e-19)
(0.388348 1.2863 1.04438e-18)
(0.987721 0.00847137 0)
(0.943104 0.0060404 0)
(1.0003 0.000544809 0)
(1.00289 0.00927186 0)
(1.00303 0.00837762 -1.20476e-18)
(0.992 0.00975756 9.09648e-19)
(-0.0166552 1.51619 0)
(-0.00478266 1.35412 0)
(-0.030847 1.63434 0)
(-0.0234206 1.55389 0)
(-0.00409671 1.40709 0)
(0.222302 0.276519 1.56088e-19)
(0.271267 0.255068 0)
(0.993594 -0.00824402 0)
(0.95443 -0.00656388 0)
(0.84334 0.0211349 0)
(0.809982 0.0338211 0)
(0.751707 -0.0228442 0)
(1.0052 -0.00548114 0)
(0.754528 0.0508884 0)
(0.617877 -0.014206 8.13467e-19)
(-0.0351315 2.8669 3.57703e-19)
(0.043436 2.90817 0)
(0.0572306 2.88269 0)
(-0.0052103 2.69617 0)
(-0.0130303 2.9852 6.19344e-19)
(-0.0183328 2.89549 0)
(-0.0154159 2.98811 -1.95501e-18)
(-0.013395 2.92522 6.747e-19)
(-0.0199003 1.81288 0)
(-0.0154652 1.80903 0)
(-0.002502 1.62555 -1.88917e-22)
(-0.00187896 1.59642 0)
(-0.00608711 1.48533 0)
(0.932072 -0.00547511 0)
(0.852129 -0.00831698 0)
(0.861789 0.00910238 0)
(0.947041 -0.00666525 0)
(0.884514 -0.00735806 0)
(0.504835 1.12222 8.07765e-21)
(0.556832 1.17777 0)
(0.350016 0.864629 6.72496e-21)
(0.293299 0.727509 0)
(0.952106 1.09497 -2.69462e-19)
(1.06552 0.89633 5.49549e-19)
(0.401627 1.39419 0)
(0.556734 1.37058 0)
(0.563274 1.32085 0)
(0.0918565 0.134417 -1.36048e-19)
(0.511322 0.263919 0)
(0.49624 0.165908 1.19008e-19)
(1.03422 0.94706 0)
(1.09961 0.789118 0)
(1.12601 0.73247 -4.73689e-19)
(1.15306 0.626348 0)
(1.20463 0.407423 5.90747e-20)
(0.956768 -0.00830062 0)
(0.961974 -0.00969982 0)
(0.901502 -0.00799052 0)
(0.984239 -0.00908702 0)
(0.974707 -0.00947626 0)
(0.936736 -0.00620446 0)
(1.00012 0.00226699 0)
(1.00091 0.00145211 0)
(0.999892 0.000857536 0)
(-0.0267024 1.936 1.84173e-19)
(0.0860362 1.64051 0)
(0.0103685 1.90973 2.05193e-19)
(0.0108664 1.66193 -1.31302e-19)
(0.112426 1.17282 -5.13466e-19)
(0.0737464 1.01949 0)
(0.129401 0.999232 0)
(-0.0571777 1.00045 0)
(-0.0487129 0.957916 0)
(0.0410219 1.73753 -7.27648e-22)
(0.0101094 1.57359 0)
(0.0110962 1.72623 -1.95058e-20)
(-0.00705456 1.56518 4.50588e-20)
(-0.0574771 1.14046 0)
(-0.0449234 1.26946 0)
(-0.044385 1.08392 0)
(-0.0101818 1.47584 0)
(-0.00559582 1.29877 0)
(0.948165 0.0148801 0)
(0.887236 0.00121452 0)
(0.92889 0.00938066 0)
(0.853228 -0.000915285 0)
(0.810012 0.00261245 0)
(0.902291 0.00828093 0)
(0.89083 0.00460163 0)
(0.799407 -0.00270196 0)
(0.0058271 3.06473 -6.26138e-21)
(0.0163247 3.05803 0)
(0.0146474 2.96916 0)
(0.0084922 2.87639 0)
(0.927684 3.98749 0)
(1.24306 3.31584 1.00975e-18)
(0.0715128 3.08443 0)
(-0.0262976 2.91211 0)
(-0.0190793 1.79868 0)
(-0.0197559 1.80275 0)
(-0.0173827 1.79986 0)
(-0.00940461 1.81812 4.42434e-21)
(-0.0143638 1.81584 0)
(-0.0122367 1.81403 0)
(-0.00425722 1.50486 -6.03911e-22)
(3.18676e-05 1.66517 1.64699e-20)
(0.000569665 1.64464 1.73126e-20)
(-0.00319557 1.48982 0)
(0.643369 0.117588 3.06135e-19)
(0.580075 0.0250217 -2.98031e-19)
(0.243897 1.5164 0)
(0.278034 0.683229 -2.23576e-19)
(0.169132 1.64234 -7.61609e-19)
(0.18663 1.1748 7.62863e-19)
(0.904328 0.00796924 0)
(0.96827 0.0109849 0)
(0.974999 0.0104812 0)
(0.925308 0.00683205 0)
(-0.0125516 1.49803 0)
(-0.0141936 1.50521 0)
(-0.0057147 1.32266 0)
(0.407875 0.313337 4.0443e-19)
(0.345385 0.294554 -4.92869e-19)
(0.354374 0.228931 0)
(1.12614 0.0832338 -9.6118e-22)
(1.11158 0.0378874 0)
(1.04052 0.0362578 0)
(0.94897 0.00631426 0)
(0.663884 0.0903678 0)
(0.69454 0.0641673 -1.30965e-18)
(0.594997 0.0100588 4.99974e-19)
(0.00989398 2.98211 4.4521e-19)
(-0.0325453 2.86759 4.69639e-20)
(0.00383005 3.05022 -1.34969e-20)
(0.0199524 3.0435 4.84861e-19)
(-0.0150046 2.99655 2.24031e-20)
(-0.0130014 2.94943 -9.06065e-23)
(-0.0173002 3.01199 -4.23463e-19)
(0.0148314 3.02396 3.06394e-19)
(0.00732063 3.03682 -4.79806e-19)
(0.925926 0.00564849 0)
(0.930057 -0.000434149 0)
(0.843349 -0.00493472 0)
(0.957119 0.012636 0)
(0.943396 0.0132286 0)
(0.88267 0.0081613 0)
(0.915373 0.0125596 0)
(0.925984 0.0145507 0)
(0.834855 0.00772098 0)
(0.71345 1.40776 3.05871e-19)
(0.749312 1.5196 0)
(0.220862 0.370168 2.89484e-20)
(0.171955 0.573243 2.33949e-19)
(0.25977 0.684987 -1.32043e-19)
(0.2235 0.571308 2.45204e-19)
(0.283926 0.675985 7.74035e-19)
(0.110274 0.171065 2.20408e-19)
(0.569627 0.221523 4.46802e-19)
(0.539746 0.245369 1.10978e-19)
(0.520961 0.149273 2.24899e-19)
(1.19305 0.463853 2.7372e-19)
(1.20877 0.257402 2.86754e-19)
(0.00368196 1.84119 4.91132e-20)
(-0.00299973 1.6006 0)
(0.992079 0.0269653 0)
(0.960404 0.0175523 0)
(0.91107 -0.00105256 0)
(0.0111203 3.07486 0)
(0.0201239 2.94415 8.3842e-19)
(0.0165399 2.95656 0)
(0.00600266 2.85072 -8.31807e-19)
(0.00605165 3.09161 1.99454e-19)
(0.00721887 3.08212 0)
(0.78308 1.82536 -2.33165e-19)
(1.24985 2.51089 6.38566e-19)
(0.7659 1.96742 -1.47508e-18)
(0.021328 2.98531 -3.31485e-19)
(0.0372988 3.00845 0)
(-0.032029 2.88314 0)
(0.00301168 1.69088 -1.84095e-21)
(-0.000820007 1.68595 -3.36993e-20)
(-0.00164317 1.53433 -6.04994e-21)
(0.257955 1.3169 7.09988e-19)
(0.240413 0.447718 -4.88113e-19)
(0.0110134 1.91763 5.00295e-19)
(0.111171 1.82974 -6.42992e-19)
(0.14298 1.43528 1.05676e-19)
(0.00396545 3.11894 -1.17871e-18)
(0.0122285 3.1192 1.29183e-18)
(-0.00859858 2.98117 5.4017e-19)
(-0.00365739 2.97797 -4.79348e-19)
(-0.0214578 2.88183 -5.50153e-19)
(0.00866526 3.10002 -1.4653e-18)
(0.00223366 3.10472 1.46072e-18)
(0.222054 0.593697 0)
(0.154229 0.574702 -4.45504e-19)
(0.128878 0.191874 1.96903e-19)
(0.319152 0.805255 6.62232e-19)
(0.170384 0.214032 -1.01528e-18)
(1.20719 0.170331 -4.6446e-20)
(1.20867 0.309322 0)
(1.19481 0.118471 1.1059e-19)
(0.044575 1.75218 -3.34933e-23)
(0.0394194 1.77454 0)
(0.0290254 1.57955 0)
(0.309949 1.19718 -2.59173e-19)
(0.347462 1.01475 -5.39864e-19)
(0.193848 0.311883 9.28959e-19)
(1.00583 -0.0110874 0)
(1.00764 -0.00770106 2.2049e-19)
(-0.0209706 1.80127 0)
(-0.0308579 1.8092 0)
(1.00217 0.00347673 1.68582e-21)
(1.00387 0.0094971 4.52666e-19)
(-0.00944846 1.82246 -5.89159e-21)
(-0.00735561 1.82154 0)
(0.039917 3.18497 1.35506e-19)
(0.40053 3.50501 0)
(1.10873 0.644255 5.15512e-20)
(1.01227 0.0125165 -2.21941e-21)
(1.0214 -0.0105251 0)
(1.00169 7.41658e-05 -3.92681e-23)
(0.0511789 1.0977 0)
(0.0943512 2.689 0)
(-0.128304 1.59281 0)
(-0.0889239 2.07832 6.85012e-20)
(-0.0644488 1.93198 4.91094e-20)
(1.0048 0.00954426 2.34624e-21)
(1.04581 0.0157363 0)
(1.07038 0.0286424 0)
(-0.0217222 1.80535 0)
(-0.0101394 1.83996 0)
(-0.0255925 1.78899 0)
(0.321964 1.42093 -4.37243e-19)
(1.01115 -0.00958348 0)
(1.00946 -0.0155379 0)
(1.0023 0.000436603 2.78242e-19)
(1.00553 -0.00492633 -3.31958e-19)
(1.00121 -0.0010686 0)
(-0.0241985 1.80106 0)
(-0.0226643 1.79791 0)
(-0.0221589 1.80063 0)
(-0.0272481 1.78882 0)
(-0.0271649 1.78876 0)
(-0.0288077 1.79033 0)
(1.02801 -0.0154705 0)
(1.02066 0.0189325 -9.86622e-22)
(0.789297 1.26697 5.03795e-19)
(1.00301 0.000234674 -2.81718e-19)
(1.00318 0.00572793 3.36682e-19)
(1.00128 0.00215421 0)
(1.01276 0.0105798 2.74349e-19)
(1.00796 0.00823475 -3.39582e-19)
(1.00873 0.0142404 0)
(-0.0102235 1.83969 0)
(-0.00978638 1.83158 9.33025e-21)
(-0.00742226 1.83047 -6.5547e-21)
(1.18506 0.250663 -1.12005e-20)
(1.12434 0.0867647 0)
(0.0548587 3.07821 -5.54038e-19)
(0.0688921 2.85063 -4.40507e-20)
(0.148424 3.19844 8.54589e-19)
(0.142102 3.22727 -1.68815e-20)
(0.140604 3.24495 0)
(0.021836 3.13897 1.22831e-19)
(0.0814049 3.16256 5.41341e-19)
(0.0738685 3.19038 -2.36624e-19)
(0.0261785 3.12825 0)
(0.677731 0.32732 0)
(0.624678 0.377986 0)
(1.08326 0.672662 -2.08163e-19)
(1.0792 0.811158 3.33223e-19)
(1.14394 0.561657 0)
(1.17526 0.509404 0)
(1.01559 0.0131524 -5.07435e-19)
(1.01376 0.0139329 6.34201e-19)
(1.02499 -0.00960955 0)
(1.02208 -0.0134069 0)
(1.00657 0.00294961 0)
(1.01035 0.0038209 0)
(1.00477 0.00175281 0)
(1.00954 0.00578101 0)
(1.00809 0.00569705 0)
(1.00506 0.00503467 0)
(0.0355226 1.09553 0)
(-0.041451 0.995702 0)
(0.168735 1.13067 0)
(0.151399 1.17557 0)
(0.0926766 2.69382 0)
(0.162868 2.70598 -2.15799e-19)
(-0.0280279 2.74221 0)
(-0.0927049 2.67664 3.63741e-21)
(-0.137518 2.41639 -2.14266e-21)
(-0.103973 1.61182 0)
(-0.0783216 1.64483 0)
(-0.159566 1.54031 0)
(-0.141425 1.44825 0)
(-0.272859 1.96981 -2.05094e-21)
(-0.0837094 1.97364 3.92535e-20)
(-0.0836822 2.07081 4.60747e-20)
(-0.060389 2.02418 0)
(-0.0614426 1.9307 -1.00576e-19)
(-0.0461549 1.90898 -3.55786e-20)
(-0.245851 1.93493 -1.75931e-21)
(-0.13629 1.93435 -5.15921e-20)
(-0.13877 2.01009 -6.05166e-20)
(1.01331 0.0194216 5.04559e-19)
(1.01239 0.00378591 -6.23117e-19)
(1.0066 0.0205956 -5.23552e-19)
(0.992588 0.0138978 6.59803e-19)
(1.0458 0.0179237 0)
(1.03423 0.00310174 0)
(1.06694 0.0383775 0)
(1.05315 0.0233766 0)
(1.05399 0.0142978 0)
(1.1077 0.0788644 0)
(1.08162 0.0478195 0)
(1.08714 0.0381507 0)
(-0.0130616 1.82463 -1.22123e-21)
(-0.0214615 1.81486 0)
(-0.0161794 1.81685 0)
(-0.013468 1.8504 1.26027e-20)
(-0.0127083 1.85199 -4.7789e-22)
(-0.0282613 1.80983 9.40094e-21)
(-0.0283057 1.80475 -9.50294e-21)
(-0.030005 1.79795 0)
(-0.0288517 1.8 0)
(-0.0289395 1.79975 0)
(-0.0277899 1.78426 0)
(-0.020123 1.76435 0)
(0.398778 1.46065 8.11329e-19)
(0.39601 1.46713 3.15046e-19)
(0.623201 2.39838 -1.61476e-19)
(0.409699 2.52873 4.70781e-19)
(0.390444 2.05474 -1.20644e-20)
(1.02116 -0.0079693 0)
(1.01521 -0.00969811 0)
(1.01552 -0.0154742 0)
(1.00735 -0.000822739 0)
(1.0046 -0.00147564 0)
(1.00743 -0.0046807 0)
(1.00947 -0.00398547 0)
(1.01391 -0.00430863 0)
(1.02264 0.0180809 4.95415e-19)
(1.01681 0.0181817 -6.22793e-19)
(1.02259 0.0213767 -4.93957e-19)
(1.01805 0.0199845 6.18735e-19)
(0.763264 1.31151 0)
(0.692002 1.36935 5.93555e-19)
(0.860201 1.2036 3.39201e-19)
(0.902489 1.16357 -4.50949e-19)
(1.14587 2.61114 -4.79131e-19)
(0.834601 0.112107 3.16314e-19)
(1.12431 0.0974503 0)
(1.17028 0.173809 1.40909e-20)
(1.15975 0.156145 7.07053e-22)
(0.975668 0.123164 0)
(0.152109 2.96881 1.50429e-19)
(0.127844 2.87483 -7.05766e-19)
(0.0409999 2.35102 5.11655e-19)
(0.107106 0.113819 -2.14997e-19)
(0.344576 3.43278 -4.29463e-19)
(0.199567 3.32385 0)
(0.240651 3.36955 5.59296e-19)
(0.257064 3.04291 -8.00185e-19)
(0.352398 3.20233 0)
(0.00838944 3.12041 2.82731e-20)
(0.0189669 3.12956 -3.57031e-19)
(0.0170258 3.12539 5.25517e-19)
(0.0387049 3.1398 0)
(0.0371462 3.1521 0)
(1.20962 2.6142 0)
(0.503105 0.847586 -2.49929e-19)
(1.01454 0.992174 -1.83249e-19)
(0.955152 1.04756 0)
(0.795771 0.951562 4.07441e-20)
(1.03445 0.865061 3.09459e-20)
(0.404967 0.478595 -5.76116e-19)
(0.709533 0.335458 -2.3546e-20)
(0.694496 0.284723 2.39082e-19)
(0.628561 0.415954 1.9069e-20)
(0.569292 0.406991 -7.8382e-19)
(0.691065 0.352894 0)
(0.722651 0.417969 4.00121e-19)
(0.719815 0.413074 0)
(0.666907 0.384791 0)
(0.649923 0.324815 0)
(0.744991 0.592292 1.56454e-19)
(1.18436 0.268219 -6.95554e-21)
(1.18129 0.403037 0)
(1.19079 0.357485 0)
(0.760555 0.217967 3.60002e-19)
(0.800753 0.510587 -2.01972e-19)
(0.725836 0.492744 3.32275e-19)
(0.911071 0.406199 -3.20813e-19)
(1.01999 0.0145842 3.34925e-19)
(1.01736 0.0141349 -3.42705e-19)
(1.01385 0.0162448 0)
(1.02916 -0.0150792 0)
(1.02707 -0.0131074 -3.11041e-19)
(1.02241 -0.0189931 3.07885e-19)
(1.03002 0.00654407 0)
(1.026 0.0166702 0)
(1.01126 0.0046048 0)
(1.01461 0.00866817 0)
(1.01557 0.00416197 0)
(1.01348 0.00197073 0)
(-0.141544 1.11122 0)
(-0.151728 1.12257 0)
(0.244667 1.08817 4.98494e-19)
(0.30053 1.41052 2.57396e-19)
(0.226999 1.28388 5.74066e-19)
(0.222356 1.31715 -9.11246e-19)
(0.354176 1.24162 0)
(0.339393 1.76991 5.11456e-19)
(0.223832 1.74421 0)
(0.4177 2.04712 1.75285e-20)
(0.384649 2.40453 2.25028e-19)
(0.4924 1.44095 -4.45455e-19)
(0.378379 1.38443 1.98398e-19)
(0.403221 1.24224 -1.6167e-19)
(0.408503 1.35145 3.13288e-19)
(0.391044 1.68493 0)
(0.412925 1.65659 -2.0042e-19)
(-0.350337 2.30807 1.19903e-19)
(-0.167634 2.53623 0)
(-0.184028 2.51743 -2.8308e-19)
(-0.264893 2.46296 0)
(-0.120037 2.65748 -5.19382e-21)
(-0.125431 2.58999 0)
(-0.25462 1.72752 5.13397e-20)
(-0.338098 1.81222 0)
(-0.280043 1.59436 0)
(-0.246838 1.61462 -5.7913e-20)
(-0.132758 2.18021 -6.73826e-20)
(-0.126848 2.37879 -5.51316e-21)
(-0.0830966 2.24181 2.64452e-23)
(-0.143987 1.85749 1.81593e-20)
(-0.182568 1.84979 2.84024e-21)
(-0.0623883 1.68224 0)
(-0.0390595 1.70017 0)
(-0.417095 1.91404 -1.93231e-19)
(-0.349747 1.62659 -2.0784e-19)
(-0.353483 1.79654 2.53637e-19)
(-0.394076 1.84269 0)
(-0.0269098 1.83626 -4.57027e-20)
(-0.0275542 1.85034 1.96729e-20)
(-0.0337932 1.85542 -6.372e-21)
(-0.116724 1.83472 -2.19949e-20)
(-0.0657452 1.88375 -1.0968e-20)
(-0.0770483 1.89833 6.46874e-20)
(1.02184 0.0178945 -3.28213e-19)
(1.02124 0.0126886 3.31775e-19)
(1.01657 0.00984888 0)
(1.00108 0.0453814 4.7723e-19)
(0.993314 0.0328075 -5.49933e-19)
(0.967124 0.0223028 6.35128e-19)
(0.999598 0.0794414 -6.25734e-20)
(1.02933 -0.0127411 0)
(1.03461 0.00409935 2.79815e-19)
(1.02694 -0.0123026 -2.81355e-19)
(1.04803 0.0409395 -1.57989e-20)
(1.0502 0.0293806 1.3982e-19)
(1.04564 0.0486321 0)
(1.03734 0.0419338 -5.17619e-20)
(1.03206 0.0276365 0)
(1.02766 0.0191952 0)
(1.03523 0.0090519 0)
(1.03132 0.0127157 0)
(1.03957 0.0258543 1.06792e-19)
(1.04213 0.0190096 -2.39644e-19)
(1.04055 0.0309938 -1.09603e-19)
(1.03856 0.030214 -1.25516e-19)
(1.04333 0.0558234 2.30879e-19)
(1.07061 0.0509924 0)
(1.06966 0.0947558 0)
(-0.024828 1.83602 -1.52452e-20)
(-0.0226853 1.82004 -1.2652e-21)
(-0.0238255 1.82181 0)
(-0.0162366 1.8352 1.53501e-20)
(-0.0150355 1.82746 2.45195e-21)
(-0.0143866 1.83262 -2.47711e-21)
(-0.0417509 1.90029 2.92005e-20)
(-0.0394654 1.86798 -2.40415e-21)
(-0.0527116 1.87453 1.2069e-20)
(-0.0228457 1.87178 -1.56062e-20)
(-0.0274531 1.87657 1.90107e-20)
(-0.0328055 1.80662 2.75191e-22)
(-0.0332807 1.81387 1.88046e-20)
(0.428511 1.40931 -3.91223e-19)
(0.409372 1.41363 -3.45761e-19)
(0.650536 1.40528 -5.72575e-19)
(0.514689 1.46847 -3.12966e-19)
(0.554403 1.44275 0)
(0.600245 2.37819 1.35295e-19)
(0.663766 2.3619 2.30366e-19)
(0.438352 2.47565 9.5958e-20)
(0.444011 2.55271 -1.62581e-19)
(0.549587 2.50899 3.243e-19)
(0.533865 2.42961 0)
(0.530175 2.44946 -3.90886e-19)
(0.265692 2.61003 6.47309e-19)
(0.374959 2.54046 -6.25075e-20)
(0.282284 2.64725 -1.00914e-18)
(0.914155 2.37728 2.13756e-19)
(0.813693 2.35585 0)
(1.0108 3.33356e-05 1.11759e-20)
(1.01569 -0.00512336 -9.12401e-21)
(1.01644 -0.00394096 -1.61574e-19)
(1.01517 -0.000443075 1.66165e-19)
(1.01266 0.00100968 0)
(0.63163 1.25399 0)
(0.63578 1.1595 0)
(0.732732 1.09054 0)
(0.626216 1.12567 0)
(1.17607 2.6279 5.83704e-20)
(1.06038 2.3597 0)
(0.862149 2.24083 -1.41873e-21)
(0.823042 2.49678 0)
(0.921567 2.5808 3.815e-21)
(0.964199 2.52822 -2.54708e-21)
(0.840064 0.141865 0)
(0.812829 0.146003 9.03237e-20)
(0.923847 0.127978 4.68655e-19)
(0.86337 0.119839 -1.86669e-19)
(0.856516 0.0709539 -5.63626e-19)
(1.02666 0.208489 -3.01437e-19)
(0.954394 0.278879 -1.55811e-20)
(0.886678 0.27567 4.29873e-19)
(0.962394 0.199105 3.25452e-19)
(0.932818 0.158853 -5.93967e-19)
(0.909589 0.174273 7.64675e-20)
(0.929618 0.2361 -1.52622e-19)
(0.908272 0.192044 0)
(0.968193 0.159897 2.85651e-19)
(1.00258 0.159552 0)
(1.00223 0.186671 0)
(1.0649 0.105225 1.00487e-19)
(1.02506 0.149177 -1.36496e-20)
(1.02022 0.212129 -5.47702e-20)
(1.0545 0.182932 0)
(1.01845 0.0256773 2.52757e-19)
(1.03312 0.0443184 3.02952e-19)
(1.02893 0.0309549 -2.51003e-19)
(1.02739 0.0481842 -2.03447e-19)
(1.00879 0.0506473 -3.35823e-19)
(0.976351 0.124126 0)
(0.982735 0.0758845 0)
(0.971061 0.0462957 -2.28587e-19)
(0.935367 0.0573972 9.54523e-20)
(1.01041 0.0799273 2.87621e-19)
(1.02901 0.106533 -3.02426e-19)
(1.0329 0.127987 2.73834e-19)
(0.994721 0.123561 0)
(1.03935 0.0950264 0)
(1.02615 0.0792691 -1.25541e-19)
(1.02417 0.079899 -2.31242e-19)
(0.57375 1.07361 -7.0928e-20)
(0.613886 1.42616 1.70162e-19)
(1.15051 2.75979 7.23124e-20)
(1.21758 3.09686 -6.57801e-20)
(1.24091 2.73019 5.04627e-19)
(1.27326 2.71461 -3.14427e-19)
(1.19873 2.34632 -8.30165e-21)
(1.20344 2.99899 1.71693e-19)
(1.22213 2.96283 -1.77331e-19)
(1.20967 3.25055 -2.6009e-19)
(1.37311 2.9795 3.60185e-19)
(1.36588 2.89651 0)
(0.503486 0.853174 -1.52264e-20)
(0.163627 1.29414 3.8211e-19)
(0.523221 0.546044 3.79676e-19)
(0.355427 0.316738 4.14363e-19)
(0.570324 0.436833 4.3805e-19)
(0.556228 0.502702 -6.99205e-19)
(0.550515 0.52515 5.7331e-19)
(0.522775 0.47473 -2.28149e-19)
(0.487 0.415988 5.24819e-19)
(0.765111 0.26948 -2.01926e-19)
(0.734973 0.294177 0)
(0.725286 0.25041 1.04978e-20)
(0.720943 0.509508 2.07039e-19)
(0.70136 0.472756 -7.60651e-19)
(0.625857 0.501475 2.00402e-20)
(0.644918 0.470963 0)
(0.627252 0.737699 1.68584e-19)
(0.77662 0.757271 8.25287e-20)
(0.710974 0.844694 -1.04546e-19)
(0.824107 0.790489 -2.98494e-20)
(0.863802 0.832594 9.02945e-21)
(0.872236 0.835058 -9.24614e-21)
(0.786919 0.624699 -2.65224e-19)
(0.868027 0.68632 2.77609e-20)
(0.932388 0.697753 0)
(0.920285 0.67102 -3.31742e-20)
(0.980905 0.31417 7.54924e-20)
(1.08483 0.276455 3.24562e-20)
(1.01228 0.248311 1.23132e-19)
(0.96623 0.34622 -1.68114e-19)
(1.00867 0.40343 0)
(1.0511 0.39703 0)
(0.884668 0.343968 3.98264e-21)
(0.819152 0.285241 0)
(0.83489 0.278913 2.17098e-19)
(0.878817 0.284033 -7.65885e-21)
(0.903643 0.406492 8.79088e-19)
(0.856267 0.459637 2.25265e-19)
(0.867702 0.427559 -2.75634e-19)
(0.808539 0.414989 2.9471e-19)
(0.795639 0.409512 1.97384e-19)
(0.777365 0.401181 -1.94076e-19)
(1.02651 -0.00867363 2.67835e-19)
(1.01993 -0.00355389 0)
(1.01816 -0.00196978 1.76497e-19)
(1.02348 -0.00418747 -3.99141e-19)
(1.02344 0.000950724 1.92148e-19)
(1.02113 0.0107377 -4.02295e-19)
(1.02272 0.0105954 0)
(1.02207 0.0110265 -8.50217e-20)
(1.01675 0.00647602 2.12494e-19)
(1.01662 0.00989256 -1.07404e-19)
(1.01762 0.00897092 7.84486e-20)
(-0.208826 1.402 0)
(-0.309929 1.54024 0)
(-0.204536 1.24735 0)
(-0.161301 1.27426 0)
(-0.219443 1.41914 -1.08786e-18)
(-0.0108961 1.22426 3.7133e-19)
(0.0657359 1.72706 3.04495e-19)
(0.0690015 1.37225 -2.31902e-19)
(-0.366028 1.61419 3.29641e-19)
(-0.368052 1.59734 -2.53797e-19)
(-0.262899 1.35757 1.21525e-19)
(-0.267607 1.37747 4.80088e-19)
(-0.274807 1.39676 5.47658e-20)
(-0.325552 1.50351 3.79031e-20)
(-0.144802 2.55758 3.06557e-19)
(-0.013588 2.62591 0)
(0.102783 2.325 -5.08271e-20)
(0.0313776 1.88202 -1.93154e-19)
(0.390236 2.12922 3.78734e-20)
(0.268246 2.51299 0)
(0.275664 2.45428 -2.17733e-19)
(0.404796 2.41947 1.43177e-19)
(0.32379 2.16155 1.2791e-19)
(0.212962 2.33599 5.3939e-21)
(0.115844 2.53219 0)
(-0.364174 2.08115 1.75787e-19)
(-0.274398 2.12918 -2.15636e-20)
(-0.322461 2.05283 0)
(-0.288136 2.28222 -1.07973e-21)
(-0.364892 2.2663 -8.05649e-20)
(-0.164819 1.70908 -2.86459e-23)
(-0.112727 1.72595 1.09302e-20)
(-0.110617 1.75636 -4.59097e-21)
(-0.171337 1.75826 -2.48012e-21)
(-0.222806 1.74299 0)
(-0.0903871 1.75845 0)
(-0.0297004 1.76382 1.41565e-20)
(-0.0497251 1.77995 -4.26974e-21)
(-0.0638412 1.76793 0)
(-0.0380594 1.73302 9.47257e-21)
(-0.0220368 1.73787 -2.0233e-20)
(1.03481 0.00739597 0)
(1.04192 0.010823 -2.66636e-20)
(1.04468 0.0185492 -1.90884e-19)
(1.04341 0.0195646 0)
(1.04349 0.0206261 0)
(1.0453 0.00742543 -6.0036e-21)
(1.04077 0.00563959 3.1987e-19)
(1.04156 0.0117834 3.8299e-19)
(1.03317 0.0146387 0)
(1.03028 0.0117734 0)
(1.04059 0.0181375 1.93734e-19)
(1.03075 0.0126537 0)
(1.03069 0.0117019 0)
(-0.0569005 1.83732 0)
(-0.0397218 1.81249 2.82153e-21)
(-0.0434058 1.83074 1.02317e-20)
(-0.0392188 1.78523 0)
(-0.046463 1.80839 9.88223e-21)
(-0.0379573 1.80215 -6.31711e-21)
(-0.0387753 1.79566 0)
(0.352369 1.71781 0)
(0.363224 1.35075 5.54206e-19)
(0.327039 1.38459 0)
(0.421941 1.31459 -7.37444e-19)
(0.48792 1.42185 0)
(0.444027 1.41402 3.59294e-19)
(1.02656 2.7101 -4.24262e-21)
(0.942424 2.41572 -2.69501e-19)
(0.867616 2.14887 3.74665e-19)
(0.83737 2.35446 1.40127e-19)
(0.843673 2.53025 0)
(0.904263 2.52412 0)
(0.880632 2.37166 0)
(0.913682 2.32079 -4.93099e-19)
(0.675077 2.50659 -5.07727e-20)
(0.801819 2.5055 -1.99068e-20)
(0.8062 2.47657 1.5296e-20)
(0.680653 2.34598 0)
(0.779607 2.35103 0)
(0.747791 2.35332 -2.376e-19)
(0.753317 2.5073 0)
(0.580495 1.08424 0)
(0.466008 0.924529 -3.66898e-20)
(0.514382 0.955444 -3.59948e-21)
(0.503179 1.05071 0)
(0.49936 1.00603 5.89785e-20)
(0.733943 0.871395 3.10882e-21)
(0.759161 1.00448 0)
(0.729603 0.962249 -4.26906e-20)
(0.594855 1.02593 0)
(0.613947 0.937747 0)
(1.157 2.77452 2.98727e-20)
(1.13386 2.8412 1.01008e-19)
(0.937826 2.36845 -2.41779e-19)
(0.906112 2.34061 2.62861e-20)
(1.12136 2.74521 0)
(1.07313 2.71594 -3.1294e-20)
(1.07444 2.48679 -9.45963e-20)
(0.968136 2.21835 -2.98852e-20)
(0.504965 1.36517 0)
(0.505531 1.0616 6.25234e-20)
(0.558946 1.13751 0)
(0.856928 0.211199 0)
(0.818925 0.158241 0)
(0.777736 0.161754 0)
(0.840809 0.222338 -3.40808e-19)
(0.788818 0.225861 2.1072e-19)
(0.938893 0.0528006 -1.96565e-19)
(0.945301 0.0999158 0)
(0.924635 0.105681 8.8093e-20)
(0.889454 0.0806 3.60066e-19)
(0.88361 0.0501852 -2.22149e-19)
(1.16175 3.37666 -9.6725e-19)
(1.20661 3.29628 0)
(1.16334 3.40332 -1.91417e-18)
(0.650671 3.56465 1.64107e-18)
(0.875604 3.13127 3.72388e-19)
(0.489974 0.873598 2.35678e-19)
(0.414188 0.861207 0)
(0.352272 0.562966 -8.69022e-20)
(0.420953 0.694842 4.05018e-19)
(0.522772 0.54157 -1.19858e-19)
(0.505879 0.566089 1.34783e-19)
(0.639782 0.552277 2.89391e-19)
(0.66483 0.548528 0)
(0.606578 0.637256 0)
(0.570093 0.572769 0)
(0.921985 0.576658 -3.74081e-20)
(0.854071 0.512391 -2.1825e-19)
(0.874771 0.545529 1.1821e-19)
(0.918235 0.48362 -1.6063e-19)
(1.00786 0.468457 0)
(1.02841 0.545526 -1.50986e-20)
(0.833863 0.372581 -4.348e-19)
(0.83372 0.35831 -5.12686e-19)
(0.792591 0.372335 3.42014e-19)
(0.774647 0.34826 -3.81202e-19)
(0.822843 0.30511 -2.86327e-19)
(0.781981 0.303417 3.51497e-19)
(1.02934 0.000966501 -2.04597e-19)
(1.03134 -0.000834545 4.17471e-19)
(1.02815 -0.00923181 2.55542e-19)
(1.0325 -0.0107593 -3.06779e-19)
(1.03745 0.00011188 0)
(1.03631 0.0026186 -5.03089e-19)
(-0.390553 1.97641 -4.82613e-20)
(-0.378519 1.82343 0)
(-0.245666 1.92185 -8.86369e-19)
(-0.129193 1.88186 8.3006e-19)
(-0.0656534 1.69709 -5.66693e-19)
(-0.267538 1.73249 0)
(-0.103911 1.83143 0)
(-0.0854464 1.78492 -4.4879e-21)
(-0.062973 1.78743 4.05849e-21)
(-0.0566208 1.80568 3.73928e-21)
(-0.0698341 1.83936 -1.1732e-20)
(-0.0797328 1.83714 8.7377e-21)
(0.496228 1.38694 3.71407e-19)
(0.464056 1.40041 -3.98534e-19)
(0.440956 1.29963 3.71527e-19)
(0.397216 1.32286 -2.32248e-20)
(0.623099 1.29123 0)
(0.551753 1.38515 5.01534e-19)
(0.575501 1.35462 -4.85926e-19)
(0.458329 1.27079 -3.65179e-19)
(0.499024 1.22166 0)
(0.556516 1.17549 0)
(0.624283 2.45801 7.4273e-20)
(0.663507 2.47152 6.2101e-19)
(0.700591 2.48379 -4.24065e-19)
(0.611661 2.45723 -1.31511e-19)
(0.55822 2.56383 1.424e-19)
(0.554969 2.53499 -3.93776e-19)
(0.954754 2.36745 -2.0439e-19)
(0.998049 2.3895 0)
(0.89044 2.13101 -2.77315e-19)
(1.04277 2.69837 0)
(1.04292 2.68728 0)
(0.618302 2.30695 2.30691e-19)
(1.03899 3.17968 4.64495e-19)
(0.910501 3.05092 -4.17623e-19)
(0.296452 0.978047 0)
(0.346498 0.847124 -1.56742e-19)
(0.484307 0.789266 -7.76763e-20)
(0.410731 2.05834 0)
(0.475821 2.8002 -2.5925e-19)
(0.436074 2.56625 0)
(0.636048 0.685009 -3.50898e-19)
(0.709961 0.66363 4.59379e-19)
(0.735213 0.608083 -4.5106e-19)
(0.622715 0.648845 -5.13421e-20)
(0.685497 0.60199 -2.10737e-19)
(0.998846 2.78785 -3.53076e-19)
(1.03277 2.84364 2.53465e-19)
(0.646808 2.1995 7.96041e-20)
(0.596084 1.74822 -8.7794e-20)
(0.693282 1.93293 6.23049e-20)
(0.984642 2.47117 -7.43066e-20)
(0.989122 2.47338 -1.23826e-19)
(0.666187 1.88392 -2.51911e-21)
(0.441584 1.35209 -5.56726e-20)
)
;

boundaryField
{
    wall-4
    {
        type            noSlip;
    }
    velocity-inlet-5
    {
        type            fixedValue;
        value           uniform (1 0 0);
    }
    velocity-inlet-6
    {
        type            fixedValue;
        value           uniform (0 3 0);
    }
    pressure-outlet-7
    {
        type            zeroGradient;
    }
    wall-8
    {
        type            noSlip;
    }
    frontAndBackPlanes
    {
        type            empty;
    }
}


// ************************************************************************* //
