/*--------------------------------*- C++ -*----------------------------------*\
| =========                 |                                                 |
| \\      /  F ield         | OpenFOAM: The Open Source CFD Toolbox           |
|  \\    /   O peration     | Version:  4.0                                   |
|   \\  /    A nd           | Web:      www.OpenFOAM.org                      |
|    \\/     M anipulation  |                                                 |
\*---------------------------------------------------------------------------*/
FoamFile
{
    version     2.0;
    format      ascii;
    class       volScalarField;
    location    "12";
    object      p;
}
// * * * * * * * * * * * * * * * * * * * * * * * * * * * * * * * * * * * * * //

dimensions      [0 2 -2 0 0 0 0];

internalField   nonuniform List<scalar> 
918
(
0.240045
0.941496
0.00711574
0.239257
7.26634e-05
0.909229
-0.832619
0.42821
0.219725
-0.134856
0.0188688
0.2102
0.769733
0.536381
-1.4274
0.0146928
0.376244
-0.632621
0.218465
0.00574209
0.515962
0.226131
0.22932
0.219939
0.277299
0.534029
0.649747
0.00247567
-0.00229603
-0.00120767
0.00344079
-0.00330173
0.00389353
0.792576
0.843229
0.865796
0.187539
0.0601868
-0.666165
-0.761131
-0.744262
-0.871529
0.411925
0.419584
-0.486634
0.426037
0.442367
0.207853
0.219191
0.220221
0.220951
0.220242
0.221652
0.305449
-0.152862
-0.201989
-0.0798512
-0.0565744
0.0841317
0.0185417
0.0155249
0.0215346
0.0235335
0.148878
0.207535
0.204498
0.213813
0.224478
0.88025
0.85127
0.876887
0.793901
0.808778
0.747319
0.719255
0.556593
0.577629
0.52345
0.513666
-1.85216
-2.82189
-0.835584
-0.576385
0.00141831
0.0219021
0.0276364
0.356362
0.367366
0.370517
0.384921
0.799361
-0.573976
-0.814556
0.218081
0.216842
0.22615
0.226524
0.223584
0.221853
0.0140189
0.0205757
-0.00480454
0.00539425
0.00305077
0.490527
0.482868
0.221761
0.218487
0.231302
0.25486
0.241297
-0.00608558
0.288444
0.317898
0.329531
0.511908
0.51132
0.517673
0.623846
0.58687
0.687648
0.710768
0.00745853
0.00197684
0.0118533
0.00722953
0.0111416
0.186026
0.181273
0.200817
0.189254
0.193525
-0.0250664
-0.153619
0.152252
0.187693
-0.577999
-0.661709
-0.725085
-0.774039
-0.836662
0.188098
0.400662
0.405536
-0.495049
-0.415759
-0.572498
-0.327082
-0.410143
0.196104
0.204839
0.198879
0.214939
0.210298
0.21093
0.223364
0.220603
0.222014
0.335303
0.397205
0.261416
0.236368
-0.415226
-0.257544
-0.417478
-0.0328333
-0.0228143
0.0943528
0.109064
0.0733386
0.0711979
-0.00667009
0.0123135
-0.00175847
0.0261581
0.0272927
0.14324
0.134766
0.157836
0.165111
0.199928
0.199732
0.202975
0.202304
0.669293
0.6917
0.700409
0.673969
-3.84673
-6.90972
-0.244158
-0.0977416
0.00219544
0.00274518
0.0014807
0.00277528
0.00369148
0.000826356
0.0435376
0.039218
0.0310602
0.0356873
0.344316
0.350791
0.76641
0.880924
0.687969
0.726988
0.205959
0.209441
0.213756
0.208436
0.026367
0.0219466
0.0266773
0.442049
0.463463
0.462792
-0.0412035
-0.130126
0.0430758
0.0690037
0.333496
0.316319
0.339436
0.393306
0.430463
0.717075
0.735294
0.735461
0.743914
0.789008
0.801969
0.76768
0.170402
0.179366
0.175554
0.204778
0.201949
0.202687
0.198016
0.200656
0.198645
-0.324129
-0.676631
0.283634
0.302609
0.244664
0.263829
0.258721
0.386783
0.379066
0.390595
0.398462
-0.25969
-0.335458
0.202602
0.182522
0.0948927
0.12245
0.107439
0.640329
0.601872
0.652165
0.625019
0.585496
0.611138
-0.714095
-1.97215
-1.21457
0.269588
0.0736892
0.164901
0.062585
0.0488389
0.0514873
0.796325
0.844654
0.449289
0.60233
0.56591
0.474191
0.50615
0.560143
0.483653
0.518155
0.55418
0.536384
0.155882
0.2793
0.156936
0.488668
0.606686
-0.145609
-0.189255
-0.264163
0.120026
0.153383
0.134619
0.763565
0.627646
0.743581
0.217563
0.218166
0.0110057
0.0175814
0.222182
0.222657
0.00634979
0.00852106
0.145293
-1.11964
-0.166706
0.209061
0.200231
0.21774
-0.12007
0.309232
0.0202861
0.0919272
0.0607717
0.206806
0.160379
0.125234
0.00709074
0.019869
0.0143624
-0.486531
0.214898
0.213033
0.217208
0.218608
0.21924
0.00984104
0.0102747
0.00733201
0.0121341
0.00979299
0.00895134
0.187578
0.198201
-0.49892
0.217508
0.219405
0.219481
0.211857
0.218167
0.215849
0.0161118
0.0116495
0.0115843
-0.0491708
0.0626235
0.407477
0.527592
0.358534
0.123396
-0.130746
0.298265
0.36994
0.263865
0.435081
0.383669
0.409037
-0.105298
-0.267128
-0.0954779
-0.1517
0.207889
0.207
0.199668
0.192903
0.213246
0.211518
0.215441
0.212409
0.215345
0.216426
-0.0672102
-0.0687726
-0.151693
-0.228541
0.330502
0.417921
0.235713
0.255815
0.147639
0.0237399
0.02424
0.0203983
0.0153943
0.0579781
0.0641856
0.079383
0.0762379
0.0495763
0.0471207
0.0532016
0.0582077
0.062666
0.202008
0.202584
0.206807
0.21346
0.167286
0.171087
0.142442
0.159167
0.149092
0.0903264
0.124203
0.104288
0.00872323
0.010128
0.00859749
0.0242187
0.0293069
0.0154267
0.0137776
0.0136465
0.0112716
0.0117025
0.0182136
0.0222562
-0.513982
-0.572751
0.898342
0.686535
-0.0442489
0.203406
0.210243
0.207279
0.213115
0.215466
0.215882
0.21376
0.210979
0.199004
0.20006
0.197075
0.197678
-0.438388
-0.588444
-0.407238
-0.454718
-0.142965
0.319715
0.0748312
0.00562258
0.00758401
0.221863
0.628541
0.421524
0.467404
0.497466
-0.662745
-0.273161
-0.594363
-0.0108694
-0.207538
0.402399
0.458019
0.483739
0.425604
0.372936
-0.520632
0.193708
-0.35942
-0.326824
-0.136735
-0.224216
0.440396
0.368234
0.374451
0.397019
0.421674
0.369918
0.349252
0.345511
0.389446
0.394927
0.186859
-0.0125453
-0.0704153
-0.0967858
0.347672
0.228633
0.279934
0.202311
0.202078
0.205136
0.203125
0.189583
0.195945
0.18876
0.196788
0.198508
0.209241
0.209154
0.204368
0.206264
-0.0374938
-0.0262111
-0.119771
-0.353786
-0.247725
-0.344894
-0.180751
0.0916707
0.0968717
0.129035
0.232162
0.0305341
-0.326862
-0.228334
-0.414455
-0.00753532
-0.145267
0.106406
0.158137
0.169412
0.141962
0.213598
0.20015
0.0394452
0.0492328
0.0316936
0.0299846
0.0997787
0.122125
0.11568
0.0490095
0.0494894
0.0262485
0.0280334
0.073178
0.0445927
0.0564806
0.0651566
0.0233733
0.0255873
0.0297431
0.041863
0.0405741
0.0435839
0.198204
0.199869
0.199651
0.209019
0.221163
0.234459
0.204802
0.183765
0.176881
0.180349
0.157478
0.164473
0.16273
0.171238
0.189625
0.195509
0.194657
0.195845
0.181995
0.184168
0.172027
0.175259
0.158942
0.142065
0.130096
0.0197846
0.0118971
0.0154726
0.016583
0.0110847
0.0135592
0.0437393
0.0349616
0.0404225
0.0342206
0.0376936
0.0173923
0.0186134
-0.567315
-0.516391
-0.567374
-0.582388
-0.636652
0.828908
0.841407
0.686621
0.403744
0.419072
0.685831
0.808875
0.425927
0.484684
0.542312
0.0673515
0.484619
0.21102
0.209361
0.205677
0.206539
0.208895
-0.314611
-0.219396
-0.220364
-0.166965
0.0133248
0.124504
0.165706
-0.231363
-0.0734233
-0.0406396
0.312967
0.331026
0.276462
0.302298
0.302291
0.136812
0.203469
0.251656
0.218654
0.257436
0.273856
0.235745
0.263564
0.222081
0.180304
0.182466
0.131602
0.139583
0.122857
0.108875
0.198927
0.178648
0.188223
0.18135
0.200122
0.229404
0.22129
0.243124
0.259881
0.188931
0.153851
0.158768
0.189255
0.151831
0.162774
0.175837
-0.01047
-0.0861158
-0.0713085
-0.417685
-0.298068
-0.368418
-0.408662
-0.30133
-0.00621586
-0.782299
-0.804262
-1.36873
0.136528
0.686353
0.41184
0.34399
0.41867
0.388729
0.38557
0.438942
0.440392
0.337343
0.361274
0.361709
0.309834
0.335346
0.36713
0.365093
0.190121
0.068377
0.0516987
0.0279903
-0.098591
-0.0656366
0.14478
0.0615393
-0.0080996
0.0146577
0.168494
0.0728342
0.130031
0.160233
0.0821408
0.0575577
0.236304
0.306845
0.302682
0.269814
0.195127
0.203134
0.233425
0.26286
0.289107
0.328192
0.198303
0.202852
0.204806
0.202262
0.197913
0.200354
0.199566
0.202072
0.203415
0.206696
0.205023
0.0137478
0.02074
-0.00523116
0.00152316
0.00918475
-0.023073
0.0374915
-0.0404047
0.0324263
0.0287011
0.00478798
-0.00643342
0.00324181
0.018355
0.147326
0.173484
0.156642
0.0998366
0.151401
0.365828
0.333415
0.293522
0.172377
0.216222
0.298762
0.0827622
0.0934123
0.0781479
0.103147
0.0994326
0.0317103
0.0292112
0.0327711
0.0410604
0.0394908
0.0305999
0.0252077
0.0256842
0.0278042
0.0266825
0.0264271
0.183855
0.179848
0.181982
0.175766
0.174024
0.186929
0.189682
0.190791
0.195064
0.196592
0.189506
0.192927
0.195533
0.0290068
0.0226916
0.0247078
0.0238978
0.0247859
0.0213134
0.0209432
-0.674432
-0.631024
-0.676451
-0.618167
-0.536476
-0.584325
0.143036
-0.0356008
0.159265
0.351056
0.204116
0.154928
0.183499
0.256486
-0.112292
0.0501933
-0.162971
0.698192
0.475763
0.648175
0.154689
-0.0874686
0.0498589
0.125246
-0.0611135
-0.0227902
-0.00600798
-0.0918101
-0.0723955
-0.0458314
0.0526583
0.0245475
0.0359499
-0.149967
0.0657729
0.0453541
0.0135669
0.153991
0.237529
0.0246046
-0.0748467
-0.152318
0.305451
0.324402
0.339661
0.314751
0.334714
0.262897
0.253506
0.273219
0.283095
0.275296
-1.11321
-0.848881
-1.73046
-1.01518
-0.619925
0.165158
0.137728
0.39236
0.299848
0.385557
0.368973
0.342831
0.305819
0.306774
0.344479
0.0696979
0.16606
0.144123
0.149449
0.0506359
-0.0030026
0.276737
0.269206
0.309288
0.331521
0.2934
0.335299
0.194091
0.194443
0.194075
0.191222
0.187881
0.189112
0.0929529
0.0713072
0.101296
0.0818139
0.0619619
0.0670294
0.0350628
0.0306628
0.0275941
0.0284173
0.0324605
0.0370638
-0.228938
-0.384228
-0.617242
-0.648267
-0.358218
-0.462186
-0.440914
-0.519994
-0.346295
-0.297545
0.0877121
0.393097
0.0854321
0.398253
0.15994
0.330566
0.241582
0.275558
0.313174
0.132052
0.178417
-0.129625
-0.609703
-0.502421
0.389976
0.43818
0.213018
0.0347848
-0.241061
-0.0750147
0.226017
0.160043
0.20521
0.272475
0.267397
-0.33471
-0.293021
-0.0217107
0.190451
-0.0961472
-0.159531
-0.13126
-0.0102833
-0.061949
)
;

boundaryField
{
    wall-4
    {
        type            zeroGradient;
    }
    velocity-inlet-5
    {
        type            zeroGradient;
    }
    velocity-inlet-6
    {
        type            zeroGradient;
    }
    pressure-outlet-7
    {
        type            fixedValue;
        value           uniform 0;
    }
    wall-8
    {
        type            zeroGradient;
    }
    frontAndBackPlanes
    {
        type            empty;
    }
}


// ************************************************************************* //
