/*--------------------------------*- C++ -*----------------------------------*\
| =========                 |                                                 |
| \\      /  F ield         | OpenFOAM: The Open Source CFD Toolbox           |
|  \\    /   O peration     | Version:  4.0                                   |
|   \\  /    A nd           | Web:      www.OpenFOAM.org                      |
|    \\/     M anipulation  |                                                 |
\*---------------------------------------------------------------------------*/
FoamFile
{
    version     2.0;
    format      ascii;
    class       surfaceScalarField;
    location    "12";
    object      phi;
}
// * * * * * * * * * * * * * * * * * * * * * * * * * * * * * * * * * * * * * //

dimensions      [0 3 -1 0 0 0 0];

internalField   nonuniform List<scalar> 
1300
(
3.75095
5.62643
-6.23803
3.75095
-6.10504
5.62643
-4.50424
4.50424
-1.4883
1.4883
1.87658
1.87438
-4.75974
4.75974
-4.88518
4.88518
-2.84841
2.84841
-5.24664
5.24664
-5.06783
5.06783
4.68456
-4.68456
-4.94623
4.94623
-1.91718
1.91718
-4.36716
4.36716
3.173
-3.173
-5.14605
5.14605
-0.547177
0.547177
-0.554114
4.30507
3.19684
3.19684
-2.57269
2.57269
-4.84944
4.84944
6.21815
-6.21815
9.46645
-9.46645
-3.22843
-3.38432
1.35588
-8.10485
-4.74916
-4.74916
-8.44022
8.44022
-2.81379
2.81264
2.94999
-2.94999
-1.74371
1.74371
-4.46796
-0.0362758
-4.46796
4.46619
0.0380497
4.46619
-1.62364
0.135335
-1.62364
4.12694
-4.12694
1.30948
0.178819
1.30948
3.05346
-3.05346
-1.87701
3.75359
1.87394
-1.87255
6.17762
-1.87841
3.75278
-4.95032
4.95032
-4.70237
-0.0573785
-4.70237
4.78629
-0.0265445
4.78629
-5.24489
5.24489
-4.84162
-0.0435581
-4.84162
4.95428
-0.0691047
4.95428
3.06287
-3.06287
-2.87763
0.0292211
-2.87763
2.8057
0.0427158
2.8057
0.353666
5.27276
-5.9801
8.79274
-5.27276
0.0261203
5.20861
0.038036
5.20861
-5.10627
0.0384436
-5.10627
5.00783
0.0599995
5.00783
4.76199
-0.0774311
4.76199
-4.80677
0.122212
-4.80677
-3.33283
-3.33272
-5.04061
0.0943793
-5.04061
-1.94585
0.0286758
-1.94585
1.8691
0.0480735
1.8691
-3.51224
3.51224
-4.21107
-0.156089
-4.21107
3.12301
0.0499844
3.12301
1.86891
1.88204
5.61987
-5.61987
2.44687
-5.1224
-0.0236496
-5.1224
-5.17652
-4.28993
5.17652
-0.0304708
-0.851382
0.304205
-0.851382
3.15986
0.03698
3.15986
2.7221
0.0835943
-2.7221
0.149409
3.43795
-3.43795
1.94225
0.630441
1.94225
-5.57264
5.57264
4.94626
0.0615709
-4.94626
0.096818
6.1576
0.0605488
6.1576
-6.19991
-0.0182382
-6.19991
3.38715
-6.77146
-3.38433
4.84517
0.101055
-4.84517
0.0960128
2.97342
-0.0234325
2.97342
-2.90291
2.90291
-2.95163
0.0016435
-2.95163
-2.15248
0.40877
-2.15248
1.45029
0.29342
1.45029
-4.413
-0.0549608
-4.413
-4.341
0.129929
4.341
0.125191
0.742622
-0.742622
-1.75072
0.127086
-1.75072
-4.26892
-0.144086
4.26892
-0.141974
-4.00681
-0.120131
-4.00681
-2.99516
0.0435298
2.99516
0.0582913
3.11543
0.044427
-3.11543
0.0619765
-1.87101
3.75305
-1.87994
3.75388
-4.75673
-0.193591
-4.75673
5.09457
-0.144241
5.09457
4.57403
-0.206875
-4.57403
-0.128332
4.81513
-0.0288435
4.81513
-5.20281
-0.0420799
-5.20281
5.26619
-0.0212947
5.26619
4.83046
-0.0153241
-4.83046
-0.0111647
5.02603
-0.07175
5.02603
3.11028
-0.0474094
3.11028
-3.0315
-0.0313705
-3.0315
2.90936
-2.90936
2.90124
0.00812094
-2.90124
0.0236086
-11.1325
11.1143
-0.0353461
-11.0972
5.17326
5.17326
4.15781
0.604178
4.15781
-5.01474
0.207971
-5.01474
3.3465
-6.73083
3.35049
-6.68332
3.3343
-11.4392
3.34025
-6.67297
5.17571
-5.17571
5.11545
0.0602675
-5.11545
0.0748388
-1.99351
0.0476532
-1.99351
-3.03993
-0.47231
-3.03993
3.97663
-0.464391
3.97663
-2.99473
2.99473
-3.06243
0.0676929
3.06243
0.0605861
5.08201
-0.0559784
-5.08201
-0.0403898
1.08527
0.224216
-1.08527
0.233885
3.6266
-0.188651
3.6266
-3.26325
-0.174699
-3.26325
-1.97593
-0.0175755
1.97593
-0.033678
-5.82071
0.248074
-5.82071
-11.1905
0.0933172
-11.1525
-6.10659
-6.10659
2.33363
11.1264
-3.00108
-0.0304239
3.00108
-0.0276557
2.93085
0.0638796
-2.93085
0.0279465
-2.90352
-0.00584025
2.90352
-0.000614844
-2.57174
0.419264
-2.57174
-1.04279
1.04279
-1.24474
0.201943
1.24474
0.205551
1.04754
-0.304917
1.04754
1.81484
0.0542608
-1.81484
0.0641204
-3.90929
-0.0975237
-3.90929
5.16898
-0.0744166
5.16898
-3.16921
-0.0940417
3.16921
-0.0589293
-0.0330859
11.1474
-5.14018
0.0339035
5.14018
-11.2079
11.2418
-3.23316
0.661423
3.23316
0.924646
5.29724
0.275395
-5.29724
0.282503
5.228
0.0381825
-5.228
0.0522895
-2.59633
-0.443591
-2.59633
-4.43181
-0.324922
4.43181
-0.455184
-11.4756
-0.201572
11.6772
-11.4156
6.02228
0.135316
-6.02228
11.3772
-0.741012
-0.0016098
0.741012
0.301781
1.48372
-0.436181
1.48372
3.80317
-0.176567
-3.80317
-0.106119
-5.18594
-0.0168667
5.18594
-0.0169627
-1.95404
-0.642292
1.95404
-0.470322
-4.26686
4.30384
1.91076
-3.37175
-3.39971
-7.66168
1.85022
1.90283
4.29709
-7.05181
-4.38735
-6.95579
7.27598
-6.99348
-9.32319
9.24576
7.40812
-7.52825
-5.78372
5.84431
6.45172
-6.39343
1.88017
1.87342
9.63099
-9.68836
-11.3378
11.1443
10.1286
-10.1722
10.876
-10.9181
-12.4791
12.5173
-5.74477
5.77399
-6.59628
6.56491
-6.78717
6.72824
-3.29966
-3.38366
9.11069
-9.01631
11.7595
-11.7832
-7.90701
7.75092
3.38413
0.919708
3.42856
-1.88296
3.76312
-1.86982
3.78058
3.37854
-6.67821
3.35229
-6.752
6.06982
5.68972
-6.03935
-1.62233
-5.87217
5.84874
-5.85871
5.8581
8.78136
-8.81764
-1.88516
3.75859
-1.86872
3.77155
-3.4242
-2.35951
3.37422
0.922873
5.58448
3.52622
-5.68553
-1.27026
-7.64518
7.46862
-7.91025
7.73555
-0.457255
5.82281
-5.36556
4.39218
-1.53927
7.36208
5.73671
5.94469
5.86927
-5.59387
1.12421
-6.48977
-6.39295
-2.69301
2.82009
2.6531
-2.47428
5.8486
1.55952
5.70662
-5.44589
-2.08235
-5.54341
3.81544
2.02887
3.88313
4.01828
2.43344
4.06181
3.03512
-3.03425
-0.000875813
-3.05924
6.09437
0.724337
-5.41876
-4.49588
6.53012
3.10086
6.50358
-6.00809
-3.68028
-6.13642
-6.85675
-4.48109
-7.18168
7.10214
4.04212
6.95789
-8.17729
8.16033
6.75575
3.37289
6.68664
-6.67924
-3.49295
-6.69041
10.5837
-2.66711
-7.91658
-7.00636
-5.47274
7.02766
3.84839
7.58203
4.93525
7.63432
3.60405
6.97964
-7.45244
1.9797
-3.83846
-1.90631
-3.81485
3.73599
2.03799
3.77871
-4.12687
-2.46941
-4.15729
-4.19634
-2.59083
4.24375
2.32116
-4.31214
-3.59811
4.40618
2.32206
3.05184
-7.43918
3.62113
-7.00478
-6.34763
-2.66868
-6.27279
4.12077
2.61179
-6.73257
-2.55743
10.9318
-5.24204
9.30944
-7.31205
-4.47115
-7.35243
-5.83107
-2.07594
-5.70114
-7.62762
7.18403
-6.89787
6.43348
14.4103
-5.38224
-9.02809
-3.96974
-2.42369
3.90777
-0.47921
-3.71283
3.71195
0.0502988
3.83088
4.75059
4.27138
-3.87028
-1.98843
-3.84233
3.86794
1.99015
3.8621
6.42841
2.35295
6.46646
-6.40643
-2.4112
-6.46139
8.91438
-8.50561
2.9247
-2.94228
5.16688
2.56867
-4.97823
-2.66695
5.98868
-3.03627
-2.95242
-12.2212
10.6385
1.58266
-4.85908
-0.466895
0.0802813
-5.52125
-3.80194
5.39904
0.545648
11.1841
7.38221
-5.51318
5.76125
6.164
6.22557
-0.167379
5.76724
-5.10582
5.11028
-2.17731
-2.93297
5.25396
-5.39805
-1.20743
-5.28424
4.07681
0.308572
1.86276
-1.55856
-2.13222
-0.560785
-2.0681
1.59559
1.05751
1.81981
1.01014
1.80996
-2.9174
0.528991
2.38841
-1.90726
-1.94529
-3.5995
-0.885489
4.48499
5.46975
1.99887
-5.36363
-0.179783
2.78788
-2.73981
-0.87598
-2.72352
1.93378
-2.80976
-3.40429
-1.80604
5.21033
-3.37525
-0.467089
3.31137
0.571765
-3.74144
-2.13073
3.7398
0.322015
-3.11468
6.21771
-3.10303
-5.1031
2.52452
3.56985
4.55339
-4.82616
2.45651
2.36965
-1.25631
5.72452
0.779062
5.69567
-8.29149
4.61121
6.00393
1.74699
-5.79706
-0.339361
-8.63085
10.58
-8.19224
-2.38773
6.24755
4.33241
6.05147
8.35886
-5.89818
11.9497
0.892248
-9.08449
7.7386
-5.99161
3.68503
-9.67664
-12.0439
2.95941
-7.45726
8.72823
-1.27098
-2.36596
-5.81133
9.82321
-1.07215
-8.75107
5.88575
-5.44248
-5.35243
10.7949
-8.10958
8.84538
-2.73381
-6.11158
-6.85562
-4.06251
6.87248
1.28784
-9.98749
11.9672
-3.00784
5.901
0.785645
5.82925
4.06285
-6.02587
1.96301
4.04673
-6.78053
2.93585
-8.96172
-4.90666
9.57622
-4.66956
-7.57534
-6.77724
-0.7981
2.03113
9.93605
-6.96638
5.35545
1.61093
3.33832
0.523781
-3.34644
-0.46841
0.350455
4.42903
-4.77948
4.12916
4.21276
3.35828
1.07075
3.82228
2.02646
-3.79462
-0.362669
-4.02548
1.43465
-1.70432
-3.5209
4.95555
-3.9408
0.419905
-2.63601
-3.47631
6.11232
-4.54232
3.08467
3.13304
5.07482
-4.8363
1.35999
-2.39825
-2.43805
2.58081
-4.28513
1.8726
3.08295
4.19466
0.59655
4.87422
4.702
-7.48601
0.481232
8.22821
-6.95795
1.70528
5.92905
-7.06072
0.283481
-5.98931
1.09945
-6.3415
-5.63311
3.56507
-5.64101
-6.11157
5.57385
0.892611
-5.69904
-0.00210484
-5.27035
-2.35728
-5.91264
-2.13244
-4.76543
-8.03062
-1.94629
-6.08433
5.23774
-4.7887
-2.39298
5.24388
1.1896
-7.37681
7.3752
-7.59224
7.15606
0.0801059
3.63184
4.35148
1.9278
-2.37554
4.30334
-4.75952
7.11247
-8.73581
3.9763
4.12639
-6.5376
-4.60942
4.89057
4.02381
5.18399
9.43076
-10.3593
0.928545
-10.9601
13.0128
-2.05271
-16.9893
6.02917
-7.55851
2.6429
0.281799
2.69056
0.672103
2.33866
-3.01076
-2.27017
-2.30385
-2.24666
-3.24643
5.4931
1.17668
-3.26304
2.08637
-3.4104
4.58707
-0.0353155
-3.22773
5.09681
-2.75815
5.37861
-3.44571
1.9329
3.23054
5.47439
-2.24386
4.15488
-1.58621
1.75851
-4.00236
-1.48792
-2.95587
4.99386
-3.15645
3.57636
-0.214379
3.79074
-3.99603
0.959758
-0.63775
3.57501
3.72442
4.10753
-3.03678
2.84725
-4.43345
-1.15512
-3.8369
-0.753958
-0.796993
-3.6593
4.45629
5.86855
-6.66554
-5.34856
9.50901
-4.16046
7.66766
-5.46273
-2.20493
-4.20534
-4.30027
3.78607
1.98117
9.64883
0.172118
-5.63485
-4.9337
-4.00906
3.10735
2.00293
-2.05911
3.64177
1.97883
-0.116071
0.642514
1.17729
1.91252
-1.27
0.147377
1.76514
-1.41118
2.06096
0.726927
-2.11522
0.0471172
-1.38872
3.3225
0.999687
-2.05719
0.78719
1.10039
-3.27769
4.69025
-2.28666
-2.40359
5.79064
1.20381
-3.49047
4.08042
-3.77185
2.31434
-3.19983
-1.17613
-4.94798
-3.38846
-2.44892
4.53529
-3.04417
5.04304
1.131
-4.86326
5.99426
-3.42139
1.61535
-3.078
3.80493
-1.16568
-1.91232
2.59675
2.61358
-2.78633
0.0628073
-0.189584
2.19396
-2.38355
-0.615798
-2.52306
-4.57243
4.89445
-2.16434
4.62085
2.139
-1.92461
6.54545
1.84431
-3.76892
-3.25879
-3.72588
-1.39927
3.15412
-0.992549
-5.69786
-7.10412
5.71318
-0.0175085
-8.54629
10.1873
-1.64096
-5.44543
0.83422
5.41333
-7.66071
0.880179
-4.72486
5.46239
6.24145
6.22395
-9.03541
0.284339
-4.99328
1.84358
-6.83686
6.17599
-4.63483
7.59424
-8.50442
6.11144
-7.31482
5.20651
-1.63035
5.6234
-3.66038
2.29319
-6.3557
-5.06785
7.00295
-3.63006
7.78859
-4.157
11.9456
-7.16484
6.99002
4.95557
-1.43724
-5.9152
-6.8481
5.41086
0.141925
5.97117
4.90919
-2.88273
4.54652
2.20803
-4.60628
-2.07711
-6.45645
1.85018
-3.32341
-1.8728
3.72298
3.20202
3.7258
1.28493
-3.25739
6.70637
-7.50447
-2.03681
-3.5963
6.75653
-1.34567
4.05611
-7.65241
-2.28538
7.46171
-1.82343
-5.63828
-2.07947
-4.0321
1.42349
-5.45559
4.21752
-4.21963
2.1741
-9.73261
-5.20271
-4.90093
-2.41205
-5.18019
-7.91927
5.50722
-1.8901
5.48511
-9.08872
7.26529
-3.92409
9.43131
-5.17391
-0.73873
5.64423
1.51183
10.9431
0.0177637
-4.62718
-1.81001
3.82983
-2.01982
1.29734
-3.64153
0.188297
2.41293
3.37771
-6.48974
-0.0478622
-4.67505
-3.8048
7.8286
5.70421
11.5728
1.21345
9.03389
-1.20529
10.2473
3.97871
4.18426
-3.81941
4.74795
0.636884
4.61318
-0.838307
2.7712
1.85225
1.88093
0.858886
2.26875
1.45567
3.2285
0.217739
-2.08611
4.69781
-8.70687
-0.937034
-8.10269
1.14306
5.87893
-4.73587
2.9957
-0.992765
0.975874
0.246689
-1.87619
1.6295
-2.68628
-1.99226
-0.22712
-1.48348
2.27067
1.83902
-2.04355
-0.642732
0.288488
-3.67695
2.91134
-2.84854
-0.234957
5.7593
-2.63694
0.253395
-1.02159
-2.26967
-2.83045
2.78333
6.23433
0.311125
3.1313
5.20557
3.07484
0.192116
4.9956
-6.26658
-3.96612
-5.98224
0.193752
5.60708
2.09062
7.84543
7.04619
5.70052
-1.9519
-9.45637
8.4754
-3.72745
6.42268
-0.7844
-4.67119
4.12451
2.98796
-5.01712
0.797496
-3.87369
-7.60114
-1.18766
8.45295
-9.75548
9.01675
6.65947
-0.575143
-4.23593
-0.665004
4.03399
0.150272
10.3976
-1.22565
-6.92485
8.15051
-4.65328
3.71624
0.761655
2.88012
2.39116
1.39839
-5.52646
-10.2623
-1.733
-1.54469
-4.13659
0.348398
-2.18742
6.28386
-2.56761
4.07893
5.58289
6.55877
-2.38889
-4.27665
6.54934
-2.47041
4.08836
)
;

boundaryField
{
    wall-4
    {
        type            calculated;
        value           uniform 0;
    }
    velocity-inlet-5
    {
        type            calculated;
        value           uniform -3.75095;
    }
    velocity-inlet-6
    {
        type            calculated;
        value           uniform -5.62643;
    }
    pressure-outlet-7
    {
        type            calculated;
        value           nonuniform List<scalar> 8(6.23803 6.10504 6.61274 6.74897 6.66555 6.77148 6.69698 6.67455);
    }
    wall-8
    {
        type            calculated;
        value           uniform 0;
    }
    frontAndBackPlanes
    {
        type            empty;
        value           nonuniform 0();
    }
}


// ************************************************************************* //
