/*--------------------------------*- C++ -*----------------------------------*\
| =========                 |                                                 |
| \\      /  F ield         | OpenFOAM: The Open Source CFD Toolbox           |
|  \\    /   O peration     | Version:  4.0                                   |
|   \\  /    A nd           | Web:      www.OpenFOAM.org                      |
|    \\/     M anipulation  |                                                 |
\*---------------------------------------------------------------------------*/
FoamFile
{
    version     2.0;
    format      ascii;
    class       volVectorField;
    location    "12";
    object      U;
}
// * * * * * * * * * * * * * * * * * * * * * * * * * * * * * * * * * * * * * //

dimensions      [0 1 -1 0 0 0 0];

internalField   nonuniform List<vector> 
918
(
(0.985155 -0.000622883 0)
(0.00480805 2.96625 0)
(-0.00314727 1.65584 0)
(0.979782 0.00237814 0)
(0.000228497 1.62573 9.03048e-22)
(-0.00704323 2.94891 -8.38021e-19)
(0.830562 1.19974 3.01244e-19)
(0.506659 0.248291 -3.75055e-21)
(0.999914 -0.000407586 0)
(0.0227765 1.40521 0)
(-0.00661033 1.43299 0)
(0.842837 -0.00440701 0)
(0.0113987 2.93033 0)
(0.00159793 2.79458 0)
(-0.021022 3.1705 4.68083e-19)
(-0.00319453 1.54159 -6.85139e-21)
(0.607566 0.115727 2.32018e-19)
(0.180953 1.38314 2.15409e-19)
(0.963925 0.00460517 0)
(0.00229425 1.5281 0)
(0.17895 0.281924 -2.05619e-19)
(1.00145 -0.0055248 0)
(1.00067 -0.0103015 0)
(0.975857 -0.006504 0)
(0.75711 -0.0236295 0)
(0.0195981 2.62618 0)
(-0.0152456 2.91053 2.77963e-19)
(-0.0084473 1.68033 0)
(-0.00840489 1.7659 0)
(-0.00710561 1.67806 0)
(0.00497482 1.79854 0)
(0.00213519 1.64061 -7.00726e-22)
(-0.00174693 1.55375 0)
(-0.0204799 2.9875 -2.94081e-23)
(-0.0169933 3.00539 6.6573e-19)
(0.0020062 3.00016 0)
(0.879394 -0.00190792 0)
(0.399701 0.916416 8.55615e-22)
(0.826165 1.20622 -4.15155e-19)
(0.976283 1.05741 3.93252e-19)
(0.706423 1.28745 -7.0245e-20)
(0.668834 1.2867 3.96497e-19)
(0.540245 0.314193 3.65709e-21)
(0.533762 0.224331 0)
(1.19184 0.596572 0)
(0.498049 0.333414 1.70485e-20)
(0.460602 0.245729 -1.77012e-20)
(0.914995 -0.00950308 0)
(1.0003 5.98669e-05 0)
(0.999966 0.000265602 0)
(1.00419 -0.0079704 0)
(1.00062 -0.000633582 0)
(1.00019 0.000140931 0)
(0.0322788 1.57422 -2.35931e-19)
(-0.00093025 1.5127 0)
(0.0197968 1.38554 0)
(-0.0037422 1.54276 0)
(0.0172654 1.39573 0)
(0.00509715 1.5864 0)
(-0.0100498 1.56131 0)
(-0.00021283 1.42214 0)
(-0.0134581 1.58613 0)
(-0.00977598 1.45541 0)
(0.915068 -0.000865532 0)
(0.911712 0.0055605 0)
(0.853433 0.000153511 0)
(0.905689 0.00909545 0)
(0.829912 -0.00373625 0)
(0.0153152 3.00067 3.00882e-19)
(0.0117009 3.00828 0)
(0.00653298 3.00253 0)
(0.0140948 2.99716 3.32667e-24)
(0.00836878 2.95858 -4.54797e-19)
(0.0151907 2.98207 0)
(0.0111695 2.9038 0)
(0.026099 2.93026 5.91887e-25)
(0.00442474 2.82524 0)
(0.0325925 2.91482 0)
(-0.00673684 2.7427 0)
(0.305175 3.56466 0)
(-0.146273 3.64218 0)
(0.135784 3.26252 -4.32073e-19)
(-0.00735435 2.99824 0)
(0.00233202 1.77705 0)
(-0.00339202 1.65306 6.75683e-21)
(-0.00245325 1.55346 -1.07154e-20)
(0.664476 0.166976 -7.95946e-20)
(0.624077 0.0800248 -7.77333e-20)
(0.636984 0.202339 -2.39969e-19)
(0.588559 0.141033 -1.60804e-19)
(0.249911 1.12883 0)
(0.162853 1.38627 -2.35597e-19)
(0.361141 1.31307 3.99455e-19)
(0.9882 0.00937616 0)
(0.940321 0.00754434 0)
(1.00036 0.000448571 0)
(1.00315 0.00965143 0)
(1.00243 0.00804048 -4.55303e-19)
(0.991785 0.00979136 3.47583e-19)
(-0.0043083 1.63033 0)
(-0.00171234 1.52653 0)
(-0.0127461 1.69161 0)
(-0.00807903 1.64922 0)
(0.0014109 1.5391 0)
(0.271818 0.291376 6.33272e-20)
(0.306934 0.271227 0)
(0.992795 -0.00845193 0)
(0.954803 -0.00585504 0)
(0.881114 0.0213674 0)
(0.846052 0.0297898 0)
(0.806272 -0.00523905 0)
(1.0268 -0.00174322 0)
(0.796645 0.0365452 0)
(0.688248 -0.00776916 3.13173e-19)
(-0.0347158 2.86709 1.46497e-19)
(0.0449459 2.90617 0)
(0.0586497 2.88145 0)
(-0.00638543 2.69367 0)
(-0.0134263 2.98528 2.55159e-19)
(-0.0184375 2.89583 0)
(-0.0157421 2.98811 -8.09109e-19)
(-0.0133097 2.92549 2.80306e-19)
(-0.0041552 1.81049 0)
(-0.00128537 1.80548 0)
(-0.00132589 1.65442 -1.40089e-22)
(0.00224728 1.63924 0)
(-0.00330534 1.53865 0)
(0.939629 0.00274445 0)
(0.884302 0.0025433 0)
(0.859934 -0.000580944 0)
(0.938112 -0.00179471 0)
(0.877381 -0.00309217 0)
(0.507058 1.11159 -5.24072e-21)
(0.557547 1.16205 0)
(0.370158 0.860045 3.91097e-21)
(0.305358 0.729635 0)
(0.950237 1.09175 -1.1278e-19)
(1.06862 0.914611 2.33906e-19)
(0.370199 1.3558 0)
(0.547685 1.3484 0)
(0.506759 1.31129 0)
(0.0689986 0.0423552 -4.16775e-20)
(0.575343 0.290952 0)
(0.56556 0.202942 4.64274e-20)
(1.04203 0.959362 0)
(1.11701 0.808363 0)
(1.14068 0.758452 -2.05336e-19)
(1.1722 0.647984 0)
(1.22588 0.431272 2.66407e-20)
(0.945681 -0.00445715 0)
(0.955523 -0.0100377 0)
(0.892789 -0.00644886 0)
(0.98484 -0.00926725 0)
(0.974221 -0.00910991 0)
(0.939081 -0.00609527 0)
(1.00012 0.00207057 0)
(1.00083 0.0015369 0)
(0.999829 0.00086396 0)
(0.0172394 1.67417 1.27817e-19)
(0.0522832 1.55166 0)
(0.0100391 1.70337 2.07625e-19)
(0.0176134 1.59039 -1.76762e-19)
(0.0386425 1.41603 -1.76532e-19)
(-0.0253496 1.47071 0)
(0.0509373 1.38864 0)
(-0.00244433 1.55346 0)
(0.0140135 1.40322 0)
(0.00204701 1.67252 -5.11607e-22)
(0.00490101 1.58244 0)
(0.00033843 1.68627 -2.5164e-20)
(-0.00238007 1.59354 4.83551e-20)
(-0.00144066 1.56236 0)
(-0.00412307 1.56025 0)
(0.00924601 1.41415 0)
(-0.0156048 1.60666 0)
(-0.00946249 1.47876 0)
(0.978656 0.0134152 0)
(0.931348 0.00352394 0)
(0.963545 0.00655254 0)
(0.906365 0.000582449 0)
(0.85915 -0.00476787 0)
(0.931045 0.00200912 0)
(0.924294 0.00781919 0)
(0.857466 0.00133823 0)
(0.00444867 3.06426 -2.51318e-21)
(0.0168089 3.05786 0)
(0.0154952 2.96913 0)
(0.00883874 2.87628 0)
(0.960485 4.00156 0)
(1.3031 3.25557 4.85709e-19)
(0.0709804 3.08937 0)
(-0.0226253 2.91392 0)
(-0.00438913 1.79556 0)
(-0.00425599 1.78094 0)
(-0.000414596 1.7852 0)
(0.0010095 1.78687 1.6291e-21)
(-0.00157217 1.77779 0)
(0.00350022 1.77981 0)
(-0.00228907 1.56213 1.69083e-21)
(-0.00265317 1.67205 1.44511e-20)
(-0.00289371 1.66421 1.09421e-20)
(-0.00111158 1.55535 0)
(0.693347 0.135562 1.17419e-19)
(0.659522 0.0566163 -1.14053e-19)
(0.239231 1.31036 0)
(0.265417 0.939669 -1.11594e-19)
(0.171959 1.42639 -3.15578e-19)
(0.184054 1.28746 3.15262e-19)
(0.887487 0.0090636 0)
(0.962951 0.013801 0)
(0.975226 0.014301 0)
(0.916466 0.0122862 0)
(-0.0130091 1.62159 0)
(-0.0087132 1.62886 0)
(-0.00665913 1.50278 0)
(0.445436 0.349815 1.56474e-19)
(0.375023 0.327997 -1.91866e-19)
(0.387953 0.251189 0)
(1.14719 0.0845119 -8.75505e-22)
(1.1288 0.0385881 0)
(1.06077 0.0347954 0)
(0.976286 0.00268685 0)
(0.722377 0.0937136 0)
(0.743753 0.0584113 -5.03932e-19)
(0.676473 0.0188566 1.92794e-19)
(0.0099961 2.98349 1.81583e-19)
(-0.0314059 2.86992 2.02049e-20)
(0.00212633 3.04949 -5.41786e-21)
(0.0206773 3.04331 2.01851e-19)
(-0.0154321 2.9963 9.30578e-21)
(-0.0127877 2.94948 -3.77653e-23)
(-0.0174996 3.01153 -1.75158e-19)
(0.0140659 3.0233 1.25919e-19)
(0.00654454 3.03642 -2.01291e-19)
(0.959095 0.00651349 0)
(0.952202 0.00580113 0)
(0.892603 0.00375652 0)
(0.947555 0.0112789 0)
(0.932718 0.00680875 0)
(0.866166 0.0065747 0)
(0.931984 -0.0026685 0)
(0.924475 -0.000337156 0)
(0.859413 -0.00614791 0)
(0.723719 1.39797 1.34016e-19)
(0.774899 1.49769 0)
(0.20615 0.452461 1.59229e-20)
(0.172194 0.58116 1.41166e-19)
(0.28479 0.692487 -7.16158e-20)
(0.233969 0.598204 1.35745e-19)
(0.339963 0.606009 2.52745e-19)
(0.0907801 0.116829 9.72849e-20)
(0.619051 0.228779 1.73836e-19)
(0.599325 0.257567 4.27258e-20)
(0.574463 0.170489 8.91922e-20)
(1.21645 0.483952 1.16021e-19)
(1.23188 0.281629 1.22372e-19)
(-0.00126094 1.71037 8.17408e-20)
(0.00383759 1.59523 0)
(1.01609 0.0218451 0)
(0.991508 0.0124566 0)
(0.950589 -0.00255441 0)
(0.0104656 3.07453 0)
(0.0207067 2.94411 3.45632e-19)
(0.0172834 2.95626 0)
(0.00625621 2.85089 -3.44482e-19)
(0.00535747 3.09171 7.98748e-20)
(0.00611047 3.08196 0)
(0.862305 1.81049 -9.75406e-20)
(1.26273 2.38314 2.11358e-19)
(0.844488 1.92291 -5.71263e-19)
(0.0212971 2.98607 -1.36198e-19)
(0.0383777 3.01131 0)
(-0.0313468 2.88316 0)
(-0.00829558 1.67434 -3.33589e-21)
(-0.00520332 1.6763 -3.38305e-20)
(-0.00513647 1.5784 -2.38732e-21)
(0.314727 1.20683 3.35731e-19)
(0.285689 0.774782 -2.22918e-19)
(0.0316411 1.62832 2.11414e-19)
(0.0844132 1.53574 -2.61377e-19)
(0.0975427 1.45175 3.34589e-20)
(0.0028888 3.11792 -4.71661e-19)
(0.0178619 3.1174 5.30056e-19)
(-0.00917864 2.98107 2.22056e-19)
(-0.00284002 2.97843 -1.97784e-19)
(-0.0217009 2.88337 -2.26278e-19)
(0.00795152 3.09844 -5.87262e-19)
(0.00149344 3.1063 5.87749e-19)
(0.207519 0.51388 0)
(0.0697555 0.514513 -2.09639e-19)
(0.135161 0.170554 9.1079e-20)
(0.396428 0.762568 2.9381e-19)
(0.16046 0.241792 -4.41525e-19)
(1.22822 0.178184 -1.93911e-20)
(1.22905 0.326519 0)
(1.21545 0.12962 4.77877e-20)
(-0.00668829 1.68354 -6.56334e-22)
(-0.00956402 1.69618 0)
(-0.000387413 1.58355 0)
(0.34796 1.04442 -1.16579e-19)
(0.340723 0.938428 -2.30792e-19)
(0.203761 0.48782 3.99915e-19)
(1.00514 -0.0104542 0)
(1.00729 -0.00812943 8.35612e-20)
(-0.00423565 1.80307 0)
(-0.00999822 1.80905 0)
(1.00225 0.00368667 8.63833e-22)
(1.00267 0.00979502 1.70538e-19)
(0.00222498 1.78919 -2.15849e-21)
(0.00177708 1.79031 0)
(0.0424972 3.18974 5.82096e-20)
(0.390709 3.49711 0)
(1.1159 0.624362 2.37096e-20)
(1.01505 0.0175169 -8.51694e-22)
(1.01552 -0.0243038 0)
(1.00163 0.000419257 6.45713e-23)
(-0.0411769 1.67926 0)
(0.0334908 1.88598 0)
(-0.0151847 1.78195 0)
(0.00569541 1.81664 3.64131e-20)
(-0.00711228 1.808 1.73927e-20)
(1.00292 0.0120916 1.01374e-21)
(1.04372 0.0123851 0)
(1.0714 0.0234331 0)
(-0.00753263 1.78275 0)
(-0.00700779 1.8 0)
(-0.0109776 1.79612 0)
(0.0683067 1.34354 -1.77339e-19)
(1.01144 -0.00941928 0)
(1.00926 -0.0138597 0)
(1.00276 0.000346586 1.05732e-19)
(1.006 -0.00533525 -1.26461e-19)
(1.00109 -0.00125978 0)
(-0.0102616 1.78508 0)
(-0.00451625 1.79826 0)
(-0.00485893 1.79181 0)
(-0.00814279 1.79844 0)
(-0.00622772 1.79542 0)
(-0.00795852 1.79829 0)
(1.02347 0.0128084 0)
(1.02288 -3.44206e-05 -4.08255e-22)
(0.78796 1.22592 2.06926e-19)
(1.00223 0.000758469 -1.05701e-19)
(1.00395 0.00565808 1.27118e-19)
(1.00129 0.00206479 0)
(1.0125 0.0111018 1.02543e-19)
(1.00832 0.00906994 -1.27419e-19)
(1.00709 0.0166413 0)
(-0.00698329 1.80009 0)
(-0.00222652 1.79512 5.97547e-21)
(-0.0041816 1.79508 -4.14949e-21)
(1.18097 0.254212 -1.34025e-20)
(1.11473 0.0770201 0)
(0.0599326 3.07737 -2.36997e-19)
(0.0709953 2.84713 -1.86618e-20)
(0.154395 3.19859 3.6818e-19)
(0.147068 3.22755 -5.98126e-21)
(0.142247 3.2506 0)
(0.0215908 3.13931 5.30895e-20)
(0.0842585 3.16341 2.28634e-19)
(0.0754633 3.1909 -1.03666e-19)
(0.0267089 3.12876 0)
(0.70672 0.338281 0)
(0.616163 0.392512 0)
(1.0762 0.651105 -9.5268e-20)
(1.09587 0.797045 1.51313e-19)
(1.13315 0.539708 0)
(1.18306 0.492276 0)
(1.01807 0.0171381 -1.93567e-19)
(1.01547 0.0216292 2.41621e-19)
(1.01385 -0.0232885 0)
(1.01199 -0.019205 0)
(1.0065 0.00154243 0)
(1.01077 0.00209766 0)
(1.00443 0.00268951 0)
(1.01166 0.00618091 0)
(1.00677 0.00592385 0)
(1.00585 0.00393811 0)
(-0.0308453 1.68653 0)
(-0.012765 1.71738 0)
(-0.0760688 1.6548 0)
(-0.0509558 1.60202 0)
(0.0373347 1.88959 0)
(0.0975814 1.87267 -1.38088e-19)
(0.021991 1.88552 0)
(0.0128962 1.86851 6.80914e-20)
(-0.0180787 1.83685 -6.69361e-20)
(-0.0185684 1.78045 0)
(-0.0231725 1.77974 0)
(-0.00947724 1.78151 0)
(-0.00223768 1.76516 0)
(-0.0122338 1.81246 -1.85731e-20)
(-0.00380609 1.80985 2.43355e-20)
(0.00658245 1.81793 3.12919e-20)
(0.00485349 1.81438 0)
(-0.0100966 1.81056 -3.97114e-20)
(-0.00918713 1.80775 -2.3257e-20)
(-0.00658675 1.81044 1.4956e-20)
(-0.00938433 1.80542 -3.16893e-20)
(-0.0018764 1.81587 -3.87905e-20)
(1.01008 0.0167643 1.88314e-19)
(1.00896 0.00475168 -2.35808e-19)
(1.0037 0.0199354 -1.94495e-19)
(0.989828 0.0149691 2.47955e-19)
(1.03716 0.0167209 0)
(1.03905 0.0103409 0)
(1.06085 0.0397422 0)
(1.04541 0.0226327 0)
(1.05717 0.0108515 0)
(1.10151 0.0658272 0)
(1.07886 0.0434015 0)
(1.08885 0.0296909 0)
(-0.00334795 1.78651 -6.66472e-22)
(-0.00797765 1.77918 0)
(-0.00552024 1.7803 0)
(-0.00585746 1.8021 6.44558e-21)
(-0.00499283 1.80252 -2.99733e-22)
(-0.0131597 1.78021 6.81343e-21)
(-0.0117127 1.78483 -6.85126e-21)
(-0.0108991 1.79337 0)
(-0.00873009 1.79448 0)
(-0.01012 1.79587 0)
(-0.012612 1.795 0)
(-0.0125366 1.79701 0)
(0.210418 1.28246 3.77143e-19)
(0.362077 1.30163 1.37154e-19)
(0.425244 2.08372 -8.54537e-20)
(0.242921 1.90429 2.04933e-19)
(-0.105005 2.39738 9.04684e-21)
(1.01735 -0.0222077 0)
(1.01615 -0.012666 0)
(1.0122 -0.0241432 0)
(1.0078 -0.00216979 0)
(1.00521 -0.00164111 0)
(1.00628 -0.00420487 0)
(1.01018 -0.00342657 0)
(1.01213 -0.00776146 0)
(1.02456 0.00340309 1.85303e-19)
(1.018 0.00756291 -2.33862e-19)
(1.02325 -0.00107438 -1.83541e-19)
(1.02042 -7.45664e-05 2.28521e-19)
(0.76043 1.23482 0)
(0.656674 1.31433 2.66142e-19)
(0.876105 1.16414 1.4999e-19)
(0.927543 1.11219 -1.99457e-19)
(1.10612 2.5751 -1.83905e-19)
(0.825347 0.103344 1.20586e-19)
(1.11015 0.0914166 0)
(1.15481 0.174531 1.45545e-20)
(1.15812 0.145761 6.33405e-22)
(0.963608 0.130555 0)
(0.184472 2.96505 4.13561e-20)
(0.133401 2.87355 -3.19783e-19)
(0.0445026 2.35324 2.1465e-19)
(0.119546 0.163837 -8.27903e-20)
(0.337316 3.44195 -1.77376e-19)
(0.199404 3.33402 0)
(0.233099 3.37702 2.3084e-19)
(0.269512 3.05127 -2.86144e-19)
(0.377508 3.21561 0)
(0.00609999 3.12053 1.21093e-20)
(0.0174276 3.12935 -1.56596e-19)
(0.0151584 3.12505 2.29663e-19)
(0.0386371 3.14064 0)
(0.0369987 3.15218 0)
(1.14636 2.6393 0)
(0.509324 0.829067 -8.86932e-20)
(1.03029 0.962223 -7.96878e-20)
(0.959313 1.05222 0)
(0.819306 0.93651 2.1643e-20)
(1.02788 0.871241 1.1785e-20)
(0.387724 0.481113 -2.346e-19)
(0.732809 0.33585 -9.60239e-21)
(0.736648 0.280908 9.25736e-20)
(0.608936 0.440802 7.34112e-21)
(0.560442 0.420964 -3.03145e-19)
(0.703603 0.370161 0)
(0.691062 0.429871 1.51385e-19)
(0.704103 0.427903 0)
(0.650067 0.409943 0)
(0.664682 0.35633 0)
(0.729232 0.60209 5.61798e-20)
(1.15426 0.263418 -6.16574e-22)
(1.162 0.395074 0)
(1.19643 0.350417 0)
(0.782735 0.216873 1.36521e-19)
(0.78102 0.532991 -7.66632e-20)
(0.691109 0.512994 1.25778e-19)
(0.87785 0.400271 -1.20021e-19)
(1.02053 0.0145481 1.2571e-19)
(1.01892 0.0196325 -1.29403e-19)
(1.0159 0.0218536 0)
(1.0212 0.0119932 0)
(1.01239 -0.00952168 -1.15015e-19)
(1.00991 0.00120631 1.15013e-19)
(1.03201 0.00343656 0)
(1.03038 0.00164844 0)
(1.01255 0.00392933 0)
(1.01616 0.0128517 0)
(1.02422 0.00201234 0)
(1.01863 0.00266084 0)
(-0.0170489 1.73106 0)
(-0.0138525 1.7365 0)
(-0.155144 1.67994 3.45087e-20)
(0.010469 1.41917 7.54549e-20)
(-0.0852088 1.55698 1.47382e-19)
(-0.0109663 1.46025 -2.45605e-19)
(-0.192277 1.65191 0)
(-0.177094 1.91802 -2.70607e-20)
(-0.140968 1.91507 0)
(-0.144231 2.38787 -1.28866e-20)
(-0.0307602 2.29248 1.69639e-19)
(-0.231827 1.94211 2.39958e-20)
(-0.173689 1.51921 5.96449e-20)
(-0.214507 1.62616 -4.76867e-20)
(-0.236119 1.52417 1.7625e-19)
(-0.24447 2.03983 0)
(-0.239454 2.08648 -1.0449e-19)
(-0.0377477 1.81971 -1.76547e-20)
(-0.0172994 1.84357 0)
(-0.0242666 1.82642 7.18144e-20)
(-0.0361114 1.82337 0)
(0.000495244 1.8638 -7.58928e-20)
(-0.00490514 1.85556 0)
(-0.0118089 1.7994 -1.41915e-20)
(-0.00987518 1.80505 0)
(-0.0157927 1.79262 0)
(-0.0152784 1.79721 1.62454e-20)
(-0.0109811 1.82163 -5.37936e-23)
(-0.0208504 1.8339 7.98283e-20)
(-0.00996688 1.82614 5.38356e-22)
(-0.0132296 1.79802 1.31933e-20)
(-0.0130375 1.79921 7.66978e-21)
(-0.0244991 1.78289 0)
(-0.0219691 1.78443 0)
(-0.0291282 1.81188 4.16956e-20)
(-0.0207946 1.79328 2.76407e-20)
(-0.0202444 1.80165 -3.9856e-20)
(-0.0406552 1.81952 0)
(-0.0110677 1.79176 -2.34483e-20)
(-0.00961476 1.80172 1.07764e-20)
(-0.0087187 1.80117 -3.31852e-21)
(-0.0127835 1.79843 -1.61073e-20)
(-0.008578 1.80513 -5.48038e-21)
(-0.0110335 1.80772 2.63452e-20)
(1.01992 0.00200174 -1.2244e-19)
(1.01396 0.00968787 1.24693e-19)
(1.0145 0.00262402 0)
(0.992147 0.0466779 1.76691e-19)
(0.988447 0.0317113 -2.06447e-19)
(0.962151 0.0254191 2.38733e-19)
(0.993947 0.0821266 -2.33877e-20)
(1.02573 0.0133465 0)
(1.0314 0.0104623 1.07883e-19)
(1.03122 0.00910453 -1.07297e-19)
(1.03279 0.0414218 -5.921e-21)
(1.03458 0.027993 5.21195e-20)
(1.02111 0.046971 0)
(1.01358 0.0419645 -1.92269e-20)
(1.01364 0.0233199 0)
(1.01573 0.0172291 0)
(1.03087 0.00609257 0)
(1.02521 0.00191863 0)
(1.02003 0.0229103 3.96684e-20)
(1.02388 0.01499 -9.004e-20)
(1.02142 0.0319506 -4.09872e-20)
(1.01909 0.0325824 -4.6735e-20)
(1.01825 0.0458235 8.49032e-20)
(1.05855 0.0432857 0)
(1.05166 0.0837645 0)
(-0.0121145 1.79146 -9.80311e-21)
(-0.0110487 1.78459 -7.61433e-22)
(-0.0116676 1.7845 0)
(-0.00924783 1.7952 9.98251e-21)
(-0.00636223 1.79184 1.35579e-21)
(-0.005486 1.79383 -1.55558e-21)
(-0.00784878 1.8076 2.04978e-20)
(-0.00676744 1.80487 -1.20144e-21)
(-0.00746487 1.80401 5.93232e-21)
(-0.0047874 1.80527 -1.00952e-20)
(-0.0061563 1.80553 1.21159e-20)
(-0.0140078 1.78333 2.27377e-22)
(-0.0143909 1.78161 9.73609e-21)
(0.115988 1.17435 -2.04275e-19)
(-0.0959694 1.59855 -2.88258e-19)
(0.641097 1.2821 -2.58306e-19)
(0.490222 1.25785 -1.31523e-19)
(0.54131 1.34504 0)
(0.470517 2.15966 7.97428e-20)
(0.677648 2.07267 1.17863e-19)
(0.2527 1.91784 4.61992e-20)
(0.191407 2.29274 -1.67163e-19)
(0.180321 2.36359 1.67174e-19)
(0.370493 2.05819 0)
(0.33914 1.91712 -2.02649e-19)
(0.106971 1.88285 3.63858e-19)
(0.222979 1.8991 -2.79067e-20)
(0.183943 1.83448 -4.85862e-19)
(0.884949 2.41174 5.94009e-21)
(0.828106 2.37616 0)
(1.00997 -0.00259234 4.16806e-21)
(1.01322 -0.0119494 -3.48752e-21)
(1.01657 -0.0135222 -6.1617e-20)
(1.02212 -0.0146844 6.24407e-20)
(1.01744 -0.00559179 0)
(0.69486 1.1997 0)
(0.695266 1.16984 0)
(0.765776 1.05548 0)
(0.667852 1.15271 0)
(1.13264 2.58636 3.35404e-20)
(1.02642 2.29821 0)
(0.945868 2.15386 6.82431e-22)
(0.912734 2.58347 0)
(1.05608 2.59644 3.25266e-20)
(1.07003 2.51488 -2.11666e-20)
(0.833143 0.15807 0)
(0.79899 0.165348 3.44376e-20)
(0.892726 0.120047 1.79505e-19)
(0.852428 0.103684 -7.08054e-20)
(0.853654 0.0659985 -2.15127e-19)
(1.01191 0.214096 -1.16666e-19)
(0.9432 0.253986 -6.44035e-21)
(0.899436 0.238671 1.58611e-19)
(0.964282 0.191957 1.22405e-19)
(0.914579 0.159117 -2.27202e-19)
(0.890874 0.165984 2.90024e-20)
(0.923254 0.214629 -5.6891e-20)
(0.900965 0.186054 0)
(0.967659 0.16383 1.09372e-19)
(1.00037 0.171359 0)
(0.993203 0.197127 0)
(1.03998 0.0969569 3.78497e-20)
(1.02071 0.157289 -5.06311e-21)
(1.00804 0.215047 -1.92156e-20)
(1.04713 0.190496 0)
(1.00733 0.0255984 9.47224e-20)
(1.01044 0.0415799 1.12276e-19)
(1.01189 0.0315022 -9.29331e-20)
(1.00677 0.0462258 -7.56525e-20)
(0.997117 0.0504289 -1.24866e-19)
(0.968207 0.129056 0)
(0.985135 0.0837859 0)
(0.965898 0.0489362 -8.58541e-20)
(0.925775 0.0544775 3.56037e-20)
(0.997914 0.0761069 1.0745e-19)
(1.01028 0.0944264 -1.12674e-19)
(1.02562 0.1276 1.00166e-19)
(0.999218 0.12464 0)
(1.01933 0.0809 0)
(1.0104 0.0655631 -4.67724e-20)
(1.00878 0.0710096 -8.63995e-20)
(0.517233 1.17743 -1.1173e-20)
(0.558141 1.54681 3.32573e-20)
(1.09489 2.77899 2.31209e-20)
(1.19569 3.10436 -3.29881e-20)
(1.20285 2.70564 2.22795e-19)
(1.23625 2.7134 -1.45157e-19)
(1.11745 2.32124 8.4537e-21)
(1.17862 2.98995 6.91894e-20)
(1.19994 2.94968 -6.30714e-20)
(1.20935 3.26003 -1.36086e-19)
(1.33576 2.98947 1.59527e-19)
(1.28255 2.90738 0)
(0.50891 0.827168 -5.40466e-21)
(0.148503 1.28345 1.66008e-19)
(0.521831 0.554099 1.55263e-19)
(0.327897 0.320123 1.66877e-19)
(0.559242 0.459948 1.69897e-19)
(0.554389 0.501139 -2.65051e-19)
(0.539065 0.541447 2.16642e-19)
(0.511738 0.480184 -9.05217e-20)
(0.480907 0.425577 2.05911e-19)
(0.783836 0.262162 -7.57176e-20)
(0.754148 0.288011 0)
(0.753551 0.252203 4.96606e-21)
(0.682226 0.511858 7.73154e-20)
(0.66757 0.478447 -2.87093e-19)
(0.596482 0.503679 7.30998e-21)
(0.621089 0.477829 0)
(0.60669 0.723052 6.3365e-20)
(0.778949 0.775105 2.169e-20)
(0.711431 0.834677 -2.89703e-20)
(0.818562 0.803543 -7.93839e-21)
(0.875116 0.829094 5.65356e-21)
(0.879755 0.839584 -5.80631e-21)
(0.777569 0.61342 -9.65153e-20)
(0.852922 0.709508 7.40126e-21)
(0.929573 0.703631 0)
(0.903789 0.658306 -1.17773e-20)
(0.962326 0.27718 2.81561e-20)
(1.05541 0.264043 1.21582e-20)
(0.997131 0.245207 4.69355e-20)
(0.935386 0.325548 -6.29175e-20)
(0.988907 0.40157 0)
(1.03882 0.38704 0)
(0.868591 0.329242 2.8557e-21)
(0.848625 0.281433 0)
(0.849448 0.245897 8.33818e-20)
(0.887505 0.248001 -2.81121e-21)
(0.867065 0.403733 3.29531e-19)
(0.827408 0.470107 8.3584e-20)
(0.821079 0.432161 -1.05357e-19)
(0.762493 0.431944 1.13097e-19)
(0.752181 0.434333 7.65379e-20)
(0.736611 0.422109 -7.44453e-20)
(1.0265 0.00426487 1.00392e-19)
(1.03173 -0.00351379 0)
(1.0309 -0.00905591 6.72343e-20)
(1.02376 -0.00747608 -1.50443e-19)
(1.03701 0.00258146 7.20409e-20)
(1.03224 0.00690427 -1.53484e-19)
(1.03061 0.00557102 0)
(1.02529 0.00809078 -3.19247e-20)
(1.02843 0.00720781 8.01313e-20)
(1.02091 0.013677 -4.07996e-20)
(1.02223 0.0133915 2.97777e-20)
(-0.00847406 1.76872 0)
(-0.020969 1.78888 0)
(-0.0144502 1.7502 0)
(-0.00666001 1.7516 0)
(-0.0719988 1.75459 -7.83331e-22)
(-0.0773534 1.71609 -3.69663e-21)
(-0.123801 1.87361 -1.2212e-20)
(-0.162827 1.75124 -2.92981e-20)
(-0.0320113 1.79604 -2.00803e-20)
(-0.0429315 1.7937 1.43475e-20)
(-0.0521599 1.76326 -4.03792e-21)
(-0.0410055 1.78221 8.86847e-22)
(-0.0318076 1.78177 1.24433e-22)
(-0.0273865 1.78649 -1.91429e-21)
(-0.0251419 1.84533 -7.6337e-20)
(-0.0180657 1.87167 0)
(-0.0502181 1.87119 4.60665e-20)
(-0.084323 1.87422 2.56364e-20)
(-0.116312 2.10022 -2.45166e-20)
(0.0538401 2.01324 0)
(0.0137607 2.07667 -1.95355e-19)
(-0.000605263 2.21178 1.3656e-19)
(-0.0672708 2.00189 -8.64155e-20)
(-0.0516017 1.93113 4.48652e-20)
(-0.00323707 1.9422 0)
(-0.0262567 1.81027 -5.3294e-20)
(-0.0171718 1.81231 -7.10653e-20)
(-0.0173088 1.81366 0)
(-0.0262038 1.8194 -2.05682e-21)
(-0.0337963 1.81735 2.76212e-20)
(-0.0190763 1.79402 2.23762e-21)
(-0.0228974 1.79013 -3.70334e-20)
(-0.0245306 1.79048 8.45762e-21)
(-0.0194817 1.79448 1.48906e-20)
(-0.0121735 1.80076 0)
(-0.0238796 1.7884 0)
(-0.0165849 1.793 1.16479e-20)
(-0.0190497 1.78666 -3.60119e-21)
(-0.0238716 1.78771 0)
(-0.0216549 1.78813 8.83138e-21)
(-0.0163696 1.79298 -1.75211e-20)
(1.02473 0.016673 0)
(1.02657 0.0151845 -9.79587e-21)
(1.02493 0.0151748 -7.23885e-20)
(1.02475 0.0172934 0)
(1.02476 0.0189719 0)
(1.02722 0.0089224 -1.81875e-21)
(1.02756 0.00944821 1.18437e-19)
(1.02405 0.00812508 1.45866e-19)
(1.02348 0.00576198 0)
(1.01902 0.00568198 0)
(1.02142 0.014287 7.29095e-20)
(1.01807 0.0122961 0)
(1.01908 0.011305 0)
(-0.0107632 1.79289 0)
(-0.0140704 1.78114 8.27514e-22)
(-0.0139065 1.78439 5.43249e-21)
(-0.0159872 1.78737 0)
(-0.0139231 1.78338 7.24053e-21)
(-0.0131718 1.78497 -3.28398e-21)
(-0.0135855 1.78466 0)
(0.464038 2.29157 0)
(-0.0635309 1.72447 5.29558e-19)
(0.010712 2.28158 0)
(0.344052 1.13185 -6.40048e-19)
(0.459094 1.06918 0)
(0.363949 1.13348 2.74013e-19)
(1.06941 2.71038 -4.33327e-22)
(0.917164 2.44131 -6.71977e-21)
(0.77492 2.12921 1.82141e-19)
(0.878548 2.39733 4.9901e-20)
(0.964068 2.59648 0)
(0.99548 2.53497 0)
(0.85358 2.40958 0)
(0.885208 2.35169 -1.59576e-19)
(0.564666 2.68352 -4.01391e-21)
(0.918298 2.62566 4.68174e-21)
(0.912821 2.57766 -3.6401e-21)
(0.566691 2.29912 0)
(0.746464 2.39277 0)
(0.746269 2.24655 -1.07295e-19)
(0.764121 2.66387 0)
(0.595505 1.10225 0)
(0.464628 0.887832 -1.19217e-21)
(0.53018 0.920069 -1.29081e-21)
(0.459373 1.05477 0)
(0.478876 1.01255 5.90509e-22)
(0.74287 0.864892 5.43911e-21)
(0.789028 0.971222 0)
(0.759264 0.930083 -2.48791e-20)
(0.61524 1.02526 0)
(0.633021 0.917038 0)
(1.12674 2.74151 -6.66176e-21)
(1.08859 2.82456 8.76478e-21)
(0.890209 2.35552 -4.2862e-20)
(0.85894 2.32382 -5.69949e-21)
(1.09383 2.70462 0)
(1.07287 2.65919 6.39819e-21)
(1.03915 2.4294 -5.70762e-20)
(0.926091 2.136 -1.333e-20)
(0.719879 1.48487 0)
(0.646248 1.16339 9.80074e-21)
(0.672844 1.19553 0)
(0.842613 0.201669 0)
(0.811711 0.178922 0)
(0.774935 0.179698 0)
(0.843121 0.20755 -1.31761e-19)
(0.798309 0.213872 8.0279e-20)
(0.926098 0.0518272 -7.28975e-20)
(0.933959 0.096865 0)
(0.908146 0.100164 3.34492e-20)
(0.882521 0.0687735 1.36945e-19)
(0.885204 0.0542784 -8.45292e-20)
(1.1568 3.39478 -4.14221e-19)
(1.20186 3.31297 0)
(1.1335 3.40753 -7.81481e-19)
(0.637492 3.5631 6.89884e-19)
(0.850607 3.11323 1.5679e-19)
(0.490279 0.830191 8.49431e-20)
(0.389727 0.828651 0)
(0.337623 0.584363 -3.26122e-20)
(0.414398 0.677157 1.46614e-19)
(0.513947 0.561622 -4.64053e-20)
(0.502346 0.567912 5.11954e-20)
(0.603428 0.535646 1.10609e-19)
(0.629557 0.542792 0)
(0.591491 0.616249 0)
(0.549483 0.558155 0)
(0.917256 0.575676 -1.49308e-20)
(0.827417 0.510411 -8.02235e-20)
(0.860693 0.549803 4.34929e-20)
(0.886306 0.496162 -6.02137e-20)
(1.00922 0.462516 0)
(1.00127 0.539351 -5.13201e-21)
(0.798611 0.376744 -1.6791e-19)
(0.810903 0.357993 -1.90033e-19)
(0.783339 0.386366 1.31006e-19)
(0.790175 0.350234 -1.47308e-19)
(0.835679 0.292466 -1.0696e-19)
(0.811231 0.294419 1.33064e-19)
(1.03645 0.00413063 -7.44285e-20)
(1.03625 0.00528392 1.54469e-19)
(1.02869 0.0087478 9.49807e-20)
(1.03047 0.013119 -1.14248e-19)
(1.02473 0.0166337 0)
(1.02864 0.0119192 -1.8693e-19)
(-0.038115 1.81817 1.12741e-20)
(-0.045735 1.82175 0)
(-0.0522292 1.82535 7.96431e-20)
(-0.0606634 1.85973 -7.01778e-20)
(-0.10201 1.85531 2.23966e-20)
(-0.0790681 1.84123 0)
(-0.0148827 1.79474 0)
(-0.0195768 1.78947 -3.89077e-21)
(-0.0178721 1.78525 3.48179e-21)
(-0.0160621 1.78427 9.38802e-22)
(-0.0131914 1.79152 -7.10991e-21)
(-0.0132325 1.7941 4.54709e-21)
(0.817286 1.47587 2.50371e-19)
(0.783685 1.62265 -2.59823e-19)
(0.545694 1.23359 3.16786e-19)
(0.734695 1.58639 -2.16377e-20)
(0.725384 1.16309 0)
(0.596648 1.0882 2.37838e-19)
(0.601655 1.16408 -2.30169e-19)
(0.574757 1.04014 -3.08937e-19)
(0.773254 1.14165 0)
(0.743824 1.1974 0)
(0.43014 2.6469 6.16842e-21)
(0.577552 2.57542 2.36326e-19)
(0.651455 2.61265 -1.60565e-19)
(0.445696 2.59181 -6.78262e-20)
(0.211526 2.67795 5.8342e-20)
(0.232016 2.56788 -1.79768e-19)
(0.935585 2.29848 -9.99903e-20)
(0.968976 2.31392 0)
(0.830698 2.05146 -1.67712e-19)
(1.05487 2.64699 0)
(1.03111 2.62985 0)
(0.624098 2.30783 9.03933e-20)
(0.999386 3.1838 1.908e-19)
(0.871933 3.04112 -1.53383e-19)
(0.335881 0.958854 0)
(0.359136 0.811856 -5.8125e-20)
(0.466506 0.741365 -2.37326e-20)
(0.428555 2.06241 0)
(0.505748 2.81394 -1.10911e-19)
(0.448409 2.59923 0)
(0.626613 0.65891 -1.30667e-19)
(0.68813 0.686568 1.66136e-19)
(0.733149 0.622664 -1.61792e-19)
(0.604545 0.631182 -1.9448e-20)
(0.654895 0.59204 -7.94357e-20)
(0.980563 2.79872 -1.44061e-19)
(1.00014 2.88646 1.30583e-19)
(0.651535 2.21563 2.66379e-20)
(0.575784 1.76883 -3.07554e-20)
(0.667689 2.00464 4.89852e-20)
(0.958473 2.53127 -2.71064e-20)
(0.959746 2.54652 -6.81028e-20)
(0.682192 1.96395 -3.63109e-21)
(0.426373 1.43095 -2.95777e-20)
)
;

boundaryField
{
    wall-4
    {
        type            noSlip;
    }
    velocity-inlet-5
    {
        type            fixedValue;
        value           uniform (1 0 0);
    }
    velocity-inlet-6
    {
        type            fixedValue;
        value           uniform (0 3 0);
    }
    pressure-outlet-7
    {
        type            zeroGradient;
    }
    wall-8
    {
        type            noSlip;
    }
    frontAndBackPlanes
    {
        type            empty;
    }
}


// ************************************************************************* //
