/*--------------------------------*- C++ -*----------------------------------*\
| =========                 |                                                 |
| \\      /  F ield         | OpenFOAM: The Open Source CFD Toolbox           |
|  \\    /   O peration     | Version:  4.0                                   |
|   \\  /    A nd           | Web:      www.OpenFOAM.org                      |
|    \\/     M anipulation  |                                                 |
\*---------------------------------------------------------------------------*/
FoamFile
{
    version     2.0;
    format      ascii;
    class       volScalarField;
    location    "32";
    object      p;
}
// * * * * * * * * * * * * * * * * * * * * * * * * * * * * * * * * * * * * * //

dimensions      [0 2 -2 0 0 0 0];

internalField   nonuniform List<scalar> 
918
(
0.519012
1.16519
0.00644006
0.518181
-0.0200284
1.13281
-0.539953
0.688641
0.498848
-0.121696
-0.0601373
0.492851
0.993751
0.760312
-1.16043
0.0513828
0.640836
-0.417971
0.498186
-0.170182
0.72329
0.505324
0.508356
0.498757
0.560485
0.74326
0.874449
-0.0746474
-0.00469214
-0.0576884
-0.0680318
-0.0964659
-0.079632
1.01617
1.06679
1.08937
0.46766
0.30325
-0.384657
-0.468237
-0.460366
-0.588102
0.681979
0.683336
-0.210181
0.689859
0.700228
0.486502
0.498186
0.499124
0.500237
0.499178
0.50061
0.379897
-0.132867
-0.161672
-0.100001
-0.0905639
0.0518496
-0.0616657
-0.0668071
-0.0600076
-0.0740187
0.418649
0.489105
0.486353
0.497454
0.504924
1.10395
1.07499
1.1006
1.01761
1.0324
0.971445
0.943406
0.780704
0.802141
0.746833
0.732642
-1.58343
-2.54294
-0.572814
-0.321302
-0.0436417
0.0767612
0.0583948
0.631297
0.631224
0.639518
0.654664
1.04449
-0.410648
-0.552756
0.498017
0.496985
0.505096
0.505452
0.502613
0.500696
-0.174304
-0.154594
-0.140901
-0.173393
-0.158578
0.710864
0.710137
0.500443
0.497043
0.51162
0.529515
0.524617
0.253978
0.562985
0.575456
0.561101
0.728793
0.726007
0.73314
0.848955
0.812906
0.911619
0.934982
-0.0480097
-0.0406608
0.0885731
0.0244703
0.040093
0.463612
0.455632
0.482108
0.471035
0.473408
0.219983
0.0862866
0.397156
0.425303
-0.295945
-0.370347
-0.465206
-0.492248
-0.608113
0.587365
0.668997
0.669743
-0.220709
-0.152699
-0.287989
-0.0676903
-0.134938
0.476882
0.483837
0.478224
0.493816
0.488562
0.490139
0.502472
0.499552
0.50107
0.440232
0.542554
0.311299
0.272786
-0.279186
-0.17371
-0.280221
-0.0796828
-0.0737708
0.056721
0.0761268
0.0418154
0.0360916
-0.072471
-0.066357
-0.0710079
-0.0872746
-0.0922804
0.413294
0.403726
0.431933
0.438783
0.480217
0.481027
0.483783
0.482486
0.89354
0.916175
0.92461
0.898014
-3.56047
-6.61656
0.0027562
0.143748
-0.0944927
-0.103037
-0.0544347
-0.0682775
-0.0454142
-0.018249
0.0276824
0.0236913
0.040215
0.0478594
0.615424
0.616772
0.949571
0.940471
0.916162
0.861264
0.486172
0.488285
0.493811
0.489297
-0.115595
-0.141449
-0.125735
0.698011
0.705665
0.704841
0.217975
0.135119
0.303672
0.331067
0.59911
0.58341
0.598093
0.623789
0.659951
0.941547
0.959414
0.959606
0.967567
1.0126
1.02546
0.991303
0.444165
0.453499
0.449195
0.485339
0.483004
0.483936
0.479396
0.480905
0.478135
-0.0841978
-0.445674
0.496884
0.510784
0.4811
0.493918
0.670927
0.721571
0.652369
0.660802
0.663043
7.63683e-05
-0.0617289
0.227016
0.193599
0.356571
0.391099
0.369236
0.864815
0.826253
0.876248
0.849349
0.809477
0.835688
-0.485174
-1.72639
-0.985375
0.503169
0.312781
0.401688
0.0238079
0.0144936
0.0269621
0.924237
1.01987
0.590704
0.774769
0.824422
0.696247
0.726298
0.787393
0.712008
0.746511
0.779546
0.757666
0.539308
0.512068
0.507503
0.769638
0.821366
0.115
0.0663793
0.0107154
0.0937209
0.145873
0.124849
0.980133
0.879012
0.952966
0.496639
0.497239
-0.136964
-0.162582
0.501379
0.501552
-0.0904296
-0.0585012
0.386183
-0.85786
0.0944223
0.489515
0.479968
0.496794
-0.118599
0.343262
-0.064846
0.0533315
0.0148505
0.490061
0.428863
0.391215
-0.214641
0.00947482
-0.1681
-0.244761
0.494151
0.492307
0.496301
0.497387
0.498009
-0.248497
-0.218965
-0.179393
-0.225175
-0.206876
-0.190605
0.461807
0.478545
-0.19652
0.496421
0.49863
0.498435
0.491277
0.497108
0.495058
-0.0314482
-0.0374617
-0.00272662
0.209501
0.325435
0.631703
0.734084
0.598862
0.367711
0.118049
0.53117
0.596401
0.500199
0.656872
0.65973
0.681886
0.162157
0.00365098
0.16537
0.106564
0.487698
0.486057
0.478337
0.475352
0.49176
0.489917
0.494322
0.49123
0.494146
0.495628
-0.0663253
-0.0839377
-0.112808
-0.175553
0.301512
0.567805
0.231787
0.275893
0.125899
-0.0544548
-0.0586851
-0.0646284
-0.0715554
-0.0132682
-0.0101572
0.0444415
0.0516567
0.0370861
0.00948728
-0.0164581
-0.0227199
-0.0321662
0.483812
0.482541
0.488601
0.496372
0.43801
0.441775
0.40809
0.42813
0.413636
0.356305
0.390523
0.365595
-0.10051
-0.187554
-0.109866
-0.00958358
0.0151744
-0.236543
-0.307117
-0.253976
-0.220319
-0.263177
-0.149767
-0.150407
-0.205777
-0.321438
0.945009
0.883686
0.0693242
0.483196
0.489723
0.486376
0.491333
0.494354
0.495251
0.493015
0.489568
0.479112
0.480972
0.477259
0.477707
-0.129786
-0.276048
-0.103611
-0.164623
0.0929588
0.594969
0.338354
0.269175
0.268542
0.493237
0.901717
0.670696
0.665881
0.705153
-0.393978
-0.0116163
-0.328458
0.261309
0.082542
0.630551
0.680585
0.70235
0.64871
0.601067
-0.287463
0.499589
-0.0810387
-0.0378601
0.160618
0.0545587
0.681614
0.643988
0.650325
0.668412
0.688713
0.647353
0.627584
0.623673
0.665463
0.671929
0.465482
0.245129
0.18828
0.157761
0.630222
0.505655
0.560193
0.475625
0.48247
0.485312
0.48382
0.46655
0.473818
0.469492
0.475217
0.478213
0.487709
0.48826
0.483338
0.4856
-0.0661715
-0.0725839
-0.0452332
-0.166625
-0.156087
-0.222503
-0.0891567
0.0301751
0.00203614
0.194695
0.274305
0.00367028
-0.0942628
-0.0659506
-0.0492286
0.130607
0.189517
0.0512608
0.141943
0.129741
0.11413
0.229218
0.228756
-0.0397097
-0.0454448
-0.0535325
-0.0518796
0.0169305
0.0817576
0.103185
-0.0267076
-0.0174425
-0.0516958
-0.0750669
-0.0416703
-0.0463322
-0.0417756
-0.00342226
-0.137306
-0.0453655
-0.033073
-0.0232892
-0.00179722
-0.0115937
0.477804
0.479566
0.479414
0.48643
0.502178
0.517074
0.478955
0.460185
0.451036
0.453777
0.427849
0.438113
0.434336
0.445971
0.466664
0.474751
0.473484
0.476006
0.459464
0.461059
0.448781
0.451638
0.429925
0.411179
0.399409
-0.157304
-0.151532
-0.158556
-0.112091
-0.114287
-0.0949397
0.0108026
0.00153615
0.000398365
0.00492711
0.0104494
-0.194763
-0.195442
-0.113634
-0.0351686
-0.219081
-0.253674
-0.327954
0.850006
0.956251
0.776672
0.548417
0.559058
0.798883
0.882044
0.524756
0.687613
0.723035
0.54331
0.78047
0.488225
0.487725
0.485297
0.484831
0.486152
-0.0405344
0.0643178
0.0652636
0.127699
0.239485
0.362145
0.269314
0.138287
0.273981
0.265701
0.588835
0.607341
0.551673
0.576993
0.574983
0.403165
0.479604
0.535873
0.490557
0.532982
0.552663
0.51717
0.544133
0.493947
0.449015
0.450632
0.396286
0.409675
0.389904
0.373286
0.477848
0.45497
0.465721
0.455848
0.477029
0.502437
0.495602
0.523841
0.535152
0.462143
0.423038
0.430486
0.461271
0.421362
0.434378
0.448951
0.189734
0.120066
0.15609
-0.136463
-0.0514342
-0.12794
-0.158828
-0.0420918
0.258297
-0.484398
-0.545492
-1.10184
0.444267
0.966634
0.637638
0.579924
0.684736
0.6596
0.659661
0.692336
0.696024
0.620174
0.637434
0.644936
0.591811
0.615692
0.643587
0.640732
0.487444
0.346445
0.336025
0.30202
0.183187
0.219137
0.420827
0.334784
0.264097
0.280636
0.440614
0.336651
0.399582
0.428064
0.348953
0.322039
0.515626
0.587491
0.577267
0.551486
0.469591
0.480082
0.510174
0.544419
0.569736
0.606201
0.475006
0.480758
0.482069
0.479613
0.476713
0.479515
0.479568
0.482243
0.483062
0.486138
0.485102
-0.0671429
-0.0582593
-0.0612693
-0.0708003
-0.0460667
-0.051739
-0.000146231
-0.0126875
-0.0296963
-0.0218634
-0.0502906
-0.0502985
-0.0445231
-0.0386842
0.0745398
0.0782219
0.0621569
0.0254242
0.197044
0.338134
0.398317
0.278144
0.18689
0.213806
0.230494
-0.0338315
0.00188528
-0.0128592
0.0239776
0.0141803
-0.0529486
-0.0615298
-0.0714698
-0.0355434
-0.0317961
-0.0837483
-0.135164
-0.102501
-0.0964759
-0.0755575
-0.110944
0.46274
0.456473
0.456533
0.451358
0.450529
0.462925
0.46722
0.469531
0.474795
0.476399
0.467383
0.472367
0.475799
-0.0612606
-0.142626
-0.109929
-0.0958812
-0.130974
-0.164127
-0.136838
0.0819759
0.00647332
0.00573977
-0.032197
-0.158078
-0.102242
0.449473
0.445981
0.468654
0.66539
0.523793
0.452338
0.537583
0.643176
0.226085
0.419181
0.253734
0.835225
0.72611
0.867565
0.487241
0.193971
0.352375
0.410599
0.201372
0.278846
0.280768
0.183539
0.21228
0.233893
0.335647
0.231128
0.213793
-0.0358238
0.157959
0.275997
0.261672
0.387927
0.457082
0.209136
0.139022
0.106088
0.579465
0.600343
0.623958
0.589176
0.615483
0.53689
0.52775
0.546861
0.55552
0.54876
-0.827418
-0.536808
-1.45276
-0.743778
-0.303487
0.475008
0.440732
0.715233
0.604837
0.665468
0.652562
0.624499
0.588343
0.598345
0.631015
0.337775
0.4406
0.41774
0.421492
0.317597
0.262928
0.557069
0.548595
0.588673
0.611534
0.577748
0.613641
0.472719
0.472405
0.471859
0.468579
0.467192
0.469124
0.0352085
0.00562356
0.046837
0.0237407
-0.000477977
-0.0140871
-0.028201
-0.0408971
-0.062106
-0.0830553
-0.0591924
-0.0302941
0.113622
0.0542758
-0.0147791
0.0122565
-0.044777
-0.112284
-0.131958
-0.0312298
0.0587232
0.0616518
0.365282
0.598573
0.422676
0.589813
0.458629
0.488866
0.461104
0.454437
0.486036
0.357327
0.429295
0.236948
-0.296821
-0.178234
0.69789
0.762288
0.539423
0.408177
0.117277
0.247534
0.516036
0.444263
0.487566
0.557926
0.549829
-0.0332965
-0.00306984
0.327892
0.529888
0.200454
0.133353
0.149699
0.311399
0.265531
)
;

boundaryField
{
    wall-4
    {
        type            zeroGradient;
    }
    velocity-inlet-5
    {
        type            zeroGradient;
    }
    velocity-inlet-6
    {
        type            zeroGradient;
    }
    pressure-outlet-7
    {
        type            fixedValue;
        value           uniform 0;
    }
    wall-8
    {
        type            zeroGradient;
    }
    frontAndBackPlanes
    {
        type            empty;
    }
}


// ************************************************************************* //
