/*--------------------------------*- C++ -*----------------------------------*\
| =========                 |                                                 |
| \\      /  F ield         | OpenFOAM: The Open Source CFD Toolbox           |
|  \\    /   O peration     | Version:  4.0                                   |
|   \\  /    A nd           | Web:      www.OpenFOAM.org                      |
|    \\/     M anipulation  |                                                 |
\*---------------------------------------------------------------------------*/
FoamFile
{
    version     2.0;
    format      ascii;
    class       surfaceScalarField;
    location    "32";
    object      phi;
}
// * * * * * * * * * * * * * * * * * * * * * * * * * * * * * * * * * * * * * //

dimensions      [0 3 -1 0 0 0 0];

internalField   nonuniform List<scalar> 
1300
(
3.75095
5.62643
-3.87547
3.75095
-4.78683
5.62643
-4.47884
4.47884
-1.02869
1.02869
1.8765
1.87446
-3.09095
3.09095
-2.51326
2.51326
-2.55495
2.55495
-5.24642
5.24642
-5.06781
5.06781
4.6612
-4.6612
-5.37316
5.37316
-1.40574
1.40574
-3.92806
3.92806
3.16875
-3.16875
-2.27165
2.27165
-0.283136
0.283136
-0.553178
4.30413
3.19777
3.19777
-2.06273
2.06273
-4.86374
4.86374
6.21769
-6.21769
5.36056
-5.36056
-1.48508
-3.07263
1.00602
-10.1445
-3.78082
-3.78082
-8.44024
8.44024
-2.81381
2.81262
2.9436
-2.9436
-1.86394
1.86394
-4.40201
-0.0768375
-4.40201
4.48241
-0.00356635
4.48241
-1.12966
0.100976
-1.12966
3.97696
-3.97696
0.879928
0.148759
0.879928
3.06487
-3.06487
-1.87714
3.75364
1.87381
-1.87177
6.1759
-1.87918
3.75364
-5.89938
5.89938
-3.28996
0.199011
-3.28996
2.89292
0.198022
2.89292
-6.68331
6.68331
-2.50279
-0.0104782
-2.50279
2.4448
0.0684619
2.4448
2.86248
-2.86248
-2.65482
0.0998644
-2.65482
2.44418
0.110771
2.44418
0.35369
5.27274
-5.98012
8.79274
-5.27274
0.0263191
5.2083
0.0381227
5.2083
-5.10561
0.037798
-5.10561
5.01218
0.0556267
5.01218
4.7385
-0.0773016
4.7385
-4.78397
0.122768
-4.78397
-3.10078
-5.47612
-5.90967
0.536509
-5.90967
-1.40711
0.0013758
-1.40711
1.36487
0.0408704
1.36487
-3.56206
3.56206
-4.28164
0.353578
-4.28164
3.12262
0.0461285
3.12262
1.86903
1.88192
5.61999
-5.61999
2.45124
-2.27899
0.00733885
-2.27899
-2.31047
-3.05009
2.31046
-0.0388186
-0.549325
0.266189
-0.549325
3.16001
0.0377652
3.16001
2.29115
0.153034
-2.29115
0.228416
3.19453
-3.19453
1.437
0.625734
1.437
-5.56854
5.56854
4.95285
0.0593318
-4.95285
0.0891116
6.15608
0.0616139
6.15608
-6.19981
-0.0178828
-6.19981
1.49806
-4.57069
-3.88492
4.61775
0.755409
-4.61775
0.836938
2.9136
0.0299955
2.9136
-2.91966
2.91966
-2.98338
0.0397801
-2.98338
-2.24767
0.383727
-2.24767
1.57994
0.284006
1.57994
-4.28133
-0.120675
-4.28133
-4.40391
0.122275
4.40391
0.0784956
1.13902
-1.13902
-1.24295
0.113285
-1.24295
-4.12699
-0.15434
4.12699
-0.150032
-3.82404
-0.152919
-3.82404
-3.02364
0.0402589
3.02364
0.0412337
3.11303
0.0469759
-3.11303
0.0481609
-1.87091
3.75283
-1.88004
3.75386
-5.52103
-0.378352
-5.52103
6.2096
-0.310221
6.2096
3.6287
0.299361
-3.6287
0.338741
2.72612
0.166808
2.72612
-6.66818
-0.0151224
-6.66818
6.64295
0.0403587
6.64295
2.59904
0.127082
-2.59904
0.0962495
2.36919
0.0756168
2.36919
2.8771
-0.014621
2.8771
-2.86309
0.000609792
-2.86309
2.79978
-2.79978
2.73132
0.0684559
-2.73132
0.076505
-11.1327
11.1148
-0.0350553
-11.0976
5.17324
5.17324
4.15324
0.585258
4.15324
-5.0003
0.216329
-5.0003
2.05351
-5.93843
5.07047
-8.17125
5.39351
-15.538
3.67753
-9.15365
6.43922
-6.43922
6.22349
0.215735
-6.22349
0.313818
-1.42829
0.0211786
-1.42829
-2.96133
-0.600729
-2.96133
4.21532
-0.653258
4.21532
-3.02816
3.02816
-3.0769
0.0487414
3.0769
0.0457187
2.24869
0.120496
-2.24869
-0.0302959
0.718861
0.161067
-0.718861
0.169536
3.38896
-0.194425
3.38896
-3.01281
-0.181725
-3.01281
-1.43671
0.00842168
1.43671
0.000282611
-5.81739
0.248846
-5.81739
-11.1909
0.0932454
-11.1527
-6.10656
-6.10656
2.33368
11.1264
-2.88621
0.0231196
2.88621
0.0273983
2.97488
0.0532849
-2.97488
0.0552147
-2.86154
0.0617586
2.86154
0.0581265
-2.63171
0.384039
-2.63171
-1.17431
1.17431
-1.34976
0.175448
1.34976
0.230176
1.37908
-0.240063
1.37908
1.31575
0.0491176
-1.31575
0.0728013
-3.70041
-0.123633
-3.70041
6.43375
-0.224143
6.43375
-2.92154
-0.091269
2.92154
-0.0444404
-0.0334165
11.1482
-5.13983
0.0342194
5.13983
-11.2098
11.244
-3.25926
0.62755
3.25926
0.893984
5.28983
0.278711
-5.28983
0.289534
6.5712
0.0717519
-6.5712
0.13197
-2.48457
-0.476762
-2.48457
-4.95535
-0.565684
4.95535
-0.74003
-11.474
-0.202114
11.6761
-11.4184
6.0195
0.136571
-6.0195
11.3806
-1.08859
-0.0504274
1.08859
0.0857223
1.65446
-0.275375
1.65446
3.58112
-0.192161
-3.58112
-0.119289
-6.58761
-0.0805724
6.58761
-0.153864
-2.05029
-0.434275
2.05029
-0.395836
-4.26689
4.30466
1.90901
-1.29948
-3.27121
-4.34957
1.8517
1.90112
4.30294
-10.2026
-5.33537
-9.36565
7.26142
-6.97189
-9.27669
9.19939
7.57726
-7.73018
-5.78731
5.83303
6.48217
-6.44093
1.87874
1.8749
7.8424
-7.64339
-15.6842
15.3058
7.40141
-7.41189
15.7784
-15.7935
-17.7916
17.8634
-5.73007
5.82994
-6.72321
6.72382
-6.93075
6.88631
-2.36424
-5.80701
13.2188
-12.6823
7.19778
-7.19044
-8.47326
8.82684
3.38193
0.922727
3.42891
-1.88238
3.76112
-1.87126
3.78027
4.10223
-6.46647
1.8362
-5.10741
3.25621
3.94157
-3.21739
-1.13218
-5.91754
5.94753
-5.82427
5.8824
8.96369
-9.04053
-1.88517
3.76006
-1.86869
3.76982
-3.42659
-2.36072
3.38046
0.922479
7.61108
5.6077
-8.36649
-0.999159
-7.86642
7.67426
-8.12492
7.94319
-0.437391
5.81765
-5.38026
4.42635
-1.55175
7.3694
5.70967
5.926
5.86531
-5.5866
1.10657
-6.48684
-6.39772
-2.54472
2.658
2.4864
-2.33764
5.96592
1.61134
5.81589
-5.58429
-2.14589
-5.70792
3.82202
2.01101
3.87076
4.07601
2.40616
4.11627
3.03078
-3.03543
0.00464867
-3.05621
6.08699
0.724637
-5.41693
-4.49445
4.89504
2.94736
5.09306
-5.45867
-2.18472
-5.11993
-9.54407
-6.14012
-10.1098
10.1244
5.18142
9.8142
-11.9869
11.833
4.64177
2.75964
4.71023
-4.9001
-2.51179
-4.80385
11.6271
-2.54046
-9.08659
-10.308
-7.48358
10.2677
5.51072
10.9106
6.95274
11.0426
4.42429
7.20276
-9.93501
2.45143
-3.8729
-1.85718
-3.79639
3.70416
2.12577
3.81493
-4.2115
-2.51171
-4.18838
-4.28399
-2.64676
4.29861
2.42521
-4.39196
-3.73296
4.48323
2.40308
5.2628
-10.5982
3.89085
-9.69786
-9.2099
-3.47237
-8.89608
4.62009
2.74227
-7.36236
-1.84638
8.08597
-4.1444
6.95379
-4.24971
-2.94073
-4.28001
-6.75066
-1.7226
-6.62839
-8.8563
8.37954
-9.19053
8.53727
12.6826
-5.72474
-6.95782
-3.96827
-2.47266
3.92011
-0.491203
-3.71098
3.71563
0.0501397
3.83041
4.75314
4.26193
-3.88834
-1.93594
-3.83312
3.83407
2.04833
3.89583
6.74372
2.21997
6.74016
-6.47652
-2.56402
-6.59719
9.04437
-8.66065
2.90698
-2.89856
5.29186
2.65134
-5.09743
-2.76899
6.1971
-3.13881
-3.05829
-12.2122
10.5774
1.63479
-4.84279
-0.416441
-0.133305
-5.49466
-3.78203
5.3719
0.554106
11.1315
7.34948
-5.51212
5.76097
6.16402
6.22336
-0.174367
5.77784
-5.15029
5.32455
-2.39323
-2.93133
5.32903
-5.48337
-1.26816
-5.27671
4.00856
0.332513
1.70365
-1.43746
-2.01533
-0.52939
-1.94253
1.47714
1.00926
1.63821
0.96733
1.69067
-2.95163
0.545989
2.40564
-1.9843
-1.79165
-3.69875
-1.03988
4.73862
5.6323
2.04195
-5.51301
-0.194907
2.70384
-2.66297
-0.789241
-2.9095
2.12233
-2.91157
-3.62657
-1.88602
5.51259
-3.37144
-0.461683
3.31816
0.552604
-3.82468
-2.09285
3.7849
0.331365
-3.12439
6.18829
-3.0639
-5.06033
2.52923
3.55776
4.54024
-4.78905
2.44568
2.34337
-1.23129
4.19168
0.901384
4.35849
-6.66681
4.48209
5.72324
3.10359
-6.0226
0.902674
-5.76413
8.44344
-7.24856
-1.19487
4.10176
4.34167
7.19189
5.49066
-5.76272
12.9546
-1.16319
-6.08537
6.92732
-3.82372
4.73686
-8.56058
-10.2275
4.14215
-9.25683
10.9985
-1.74168
-3.62186
-8.36502
12.8787
-1.22503
-11.6537
8.58917
-4.20617
-4.30373
8.5099
-6.74663
6.81552
-1.9855
-4.83002
-10.1125
-5.68106
10.1931
1.63996
-9.91774
12.3692
-2.71498
3.74679
0.963441
3.82241
3.2563
-5.38548
2.12918
3.49033
-5.47583
2.0767
-7.46217
-7.20779
12.9452
-5.73743
-10.6802
-9.71436
-0.965804
2.50673
9.86244
-9.45948
7.35209
2.10738
3.3107
0.585129
-3.37916
-0.417236
0.262375
4.54542
-4.8078
4.07731
4.23034
3.38198
1.16345
3.83876
2.10877
-3.86616
-0.32222
-4.15255
1.50579
-1.72733
-3.65516
5.16094
-4.06827
0.413115
-2.7308
-3.51003
6.24083
-4.58797
3.03819
3.1501
5.08652
-4.91074
1.4007
-2.40271
-2.50803
2.66757
-4.3949
1.94351
3.21743
4.3466
0.613634
6.80401
6.14122
-9.54627
-0.151589
11.7489
-10.7498
2.56078
8.48183
-9.91287
0.198514
-8.69757
1.46774
-5.61214
-5.89461
5.05428
-6.77688
-3.5063
6.11826
0.621894
-6.19676
-0.431627
-6.03346
-2.82284
-6.46773
-3.05792
-6.13261
-8.82064
-1.6462
-7.17444
6.73334
-6.6745
-3.43525
7.41453
1.12274
-7.38732
7.3369
-7.46105
7.18568
0.0949135
3.62072
4.35685
1.88418
-2.38943
4.27361
-5.03549
7.25546
-8.50785
3.47236
4.00164
-6.56565
-4.50621
5.03433
4.01004
5.31834
8.9239
-10.4217
1.49778
-10.763
12.083
-1.31994
-16.5213
5.7583
-7.59742
2.65248
0.254503
2.67366
0.663016
2.42938
-3.0924
-2.23554
-2.23526
-2.34197
-3.41847
5.76044
1.1434
-3.43112
2.28772
-3.48795
4.63135
-0.062484
-3.36863
5.28791
-2.85853
5.54241
-3.55043
1.99198
3.33857
5.7106
-2.37203
4.34732
-1.69598
1.84014
-4.21216
-1.57833
-2.96938
5.09516
-3.27145
3.68456
-0.287358
3.97192
-4.09565
0.956846
-0.713679
3.51666
3.74508
4.28506
-3.12161
2.98539
-4.68137
-1.22677
-4.06774
-0.850309
-0.290011
-3.77793
4.06794
6.04254
-6.33256
-5.2287
9.54416
-4.31545
7.72747
-5.39173
-2.33573
-4.24847
-4.41218
3.86443
1.91341
9.64088
0.235527
-5.62726
-4.91477
-4.02078
3.20449
2.12006
-1.91323
3.54801
2.04653
-0.342883
0.572149
1.06606
1.86627
-1.29412
0.201868
1.66441
-1.23559
1.9856
0.71824
-2.03472
0.0921957
-1.36896
3.49129
1.03668
-2.04594
0.751815
1.07745
-3.47067
4.87286
-2.48762
-2.38524
5.95031
1.14207
-3.6297
4.13464
-3.80213
2.33349
-3.37337
-1.2962
-5.09833
-3.48699
-2.54767
4.83538
-3.21277
5.25473
1.20882
-5.05982
6.26864
-3.55689
1.67087
-3.07849
3.79673
-1.07445
-2.00404
2.79642
2.71617
-2.93095
0.0214492
-0.134533
2.33076
-2.46529
-0.580813
-2.56512
-4.572
4.90337
-2.10777
4.55345
2.16584
-1.9142
6.46765
1.81177
-3.72597
-3.24856
-3.71024
-1.38261
3.15764
-0.559001
-4.24485
-5.38902
4.11777
0.24072
-6.83872
7.64605
-0.80733
-3.89136
-0.590725
4.69249
-5.95474
0.478905
-3.87804
3.76801
4.6694
4.91012
-11.4613
-0.192335
-6.2799
1.16935
-7.44926
5.51102
-3.63982
7.78196
-10.4375
7.00228
-9.3148
6.58709
-0.862167
6.2576
-4.12843
2.82899
-8.51005
-6.87008
5.48344
-2.7238
6.44688
-3.07113
9.51801
-5.7861
5.0124
4.50561
-0.668267
-3.61174
-5.34356
4.6753
-0.331164
3.49124
4.97084
-2.86207
4.64862
2.258
-4.66071
-2.13691
-6.5023
1.84159
-3.35219
-1.91489
3.75648
3.17163
3.75676
1.24845
-3.33952
7.60809
-8.57389
-1.87066
-4.02396
5.31489
-0.639593
3.23798
-7.26194
-2.37416
4.90232
-0.844045
-4.05828
0.822415
-4.32872
1.64808
-5.9768
5.1288
-5.56042
2.18214
-9.77956
-5.20518
-5.11946
-2.2257
-5.23535
-7.61978
5.39408
-1.86148
5.47541
-8.59854
7.75449
-3.48443
8.8785
-5.43035
-1.03739
5.82618
1.35949
10.238
0.186878
-4.69309
-1.90461
3.96576
-2.06114
1.29987
-3.59105
0.374703
2.48045
3.46986
-6.48901
-0.0766412
-4.76973
-3.92744
7.93748
5.61672
11.6593
1.23757
9.11873
-1.18124
10.3563
4.1371
4.36727
-3.05678
4.55456
1.01117
4.48352
-0.840645
2.83262
1.83301
1.83439
0.828585
2.31374
1.43134
3.27059
0.17819
-2.05707
4.63586
-8.65664
-0.991402
-8.07138
1.12801
5.82566
-4.69766
3.09428
-0.97422
1.03314
0.135591
-1.65161
1.51602
-2.79574
-1.99449
-0.330085
-1.60737
2.35918
1.88393
-2.0291
-0.766637
0.327524
-3.81451
3.04585
-3.0244
-0.308231
5.96041
-2.74744
0.282142
-1.07656
-2.28297
-2.81236
2.72017
6.17602
0.291626
3.11212
5.195
3.10214
0.24007
3.90878
-5.65045
-3.55339
-5.84279
-0.331767
4.36072
1.65458
8.20786
6.16019
5.52059
-1.74134
-10.3152
6.57012
-2.01556
5.25019
-1.19191
-4.78489
4.94569
2.30977
-5.56759
0.00716551
-4.77773
-6.79329
-0.560178
8.31467
-9.67782
8.64043
5.81759
1.35685
-4.40107
-0.718389
4.22562
0.141652
10.498
-1.18069
-6.74163
7.92233
-4.64497
3.65357
0.792799
2.75521
2.30882
1.3346
-5.40704
-10.1047
-1.90328
-1.56739
-4.28852
0.450102
-2.33403
6.2743
-2.62073
3.93856
5.3016
6.33474
-2.14869
-4.18386
6.46415
-2.52558
3.80916
)
;

boundaryField
{
    wall-4
    {
        type            calculated;
        value           uniform 0;
    }
    velocity-inlet-5
    {
        type            calculated;
        value           uniform -3.75095;
    }
    velocity-inlet-6
    {
        type            calculated;
        value           uniform -5.62643;
    }
    pressure-outlet-7
    {
        type            calculated;
        value           nonuniform List<scalar> 8(3.87547 4.78683 4.55771 9.13844 8.5769 5.38297 7.12399 9.07103);
    }
    wall-8
    {
        type            calculated;
        value           uniform 0;
    }
    frontAndBackPlanes
    {
        type            empty;
        value           nonuniform 0();
    }
}


// ************************************************************************* //
