/*--------------------------------*- C++ -*----------------------------------*\
| =========                 |                                                 |
| \\      /  F ield         | OpenFOAM: The Open Source CFD Toolbox           |
|  \\    /   O peration     | Version:  4.0                                   |
|   \\  /    A nd           | Web:      www.OpenFOAM.org                      |
|    \\/     M anipulation  |                                                 |
\*---------------------------------------------------------------------------*/
FoamFile
{
    version     2.0;
    format      ascii;
    class       volVectorField;
    location    "32";
    object      U;
}
// * * * * * * * * * * * * * * * * * * * * * * * * * * * * * * * * * * * * * //

dimensions      [0 1 -1 0 0 0 0];

internalField   nonuniform List<vector> 
918
(
(0.985095 -0.000543531 0)
(0.00478516 2.96626 0)
(-0.0565273 1.01584 0)
(0.979825 0.00241292 0)
(-0.0431386 1.25275 3.46509e-20)
(-0.00704698 2.94891 -1.05099e-18)
(0.830956 1.19047 1.95481e-19)
(0.338253 0.162463 -6.12846e-21)
(0.999904 -0.000309787 0)
(0.0477537 0.885136 0)
(0.0144092 0.711963 0)
(0.730499 -0.00896195 0)
(0.0114889 2.93014 0)
(0.0029521 2.79462 0)
(-0.0194467 3.1539 3.59814e-19)
(-0.106161 1.69749 -2.36356e-20)
(0.419448 0.0559969 4.00165e-19)
(0.170625 1.22096 1.43468e-19)
(0.961979 0.00390547 0)
(-0.0207575 0.641658 0)
(0.0832194 0.192312 -2.91434e-19)
(1.00217 -0.00520537 0)
(1.00076 -0.0101624 0)
(0.975958 -0.00652893 0)
(0.580919 -0.0330574 0)
(0.0181401 2.63678 0)
(-0.0148313 2.91015 3.66744e-19)
(-0.0962555 0.896247 0)
(-0.222506 1.19869 0)
(-0.077513 0.952176 0)
(-0.190844 2.46034 0)
(-0.0157421 1.43194 -2.68192e-20)
(-0.0788737 1.11003 0)
(-0.0204611 2.98751 -3.77045e-23)
(-0.016985 3.0054 8.34884e-19)
(0.00201795 3.00016 0)
(0.870353 -0.00881496 0)
(0.437232 0.973013 6.63096e-20)
(0.806397 1.20641 -2.19344e-19)
(0.956244 1.04386 2.36904e-19)
(0.676522 1.30323 -4.50174e-20)
(0.675071 1.29135 2.61059e-19)
(0.380691 0.247537 5.97545e-21)
(0.354207 0.135352 0)
(1.14311 0.57897 0)
(0.347849 0.244916 2.73458e-20)
(0.297027 0.166943 -2.83943e-20)
(0.919489 -0.0072978 0)
(1.00029 0.000139009 0)
(0.999916 0.000337112 0)
(1.00352 -0.00768658 0)
(1.00095 -0.000948058 0)
(1.00019 2.06088e-05 0)
(0.062466 1.77362 -2.94481e-19)
(0.0249563 1.04407 0)
(0.0686844 0.944927 0)
(0.0263645 0.986637 0)
(0.0220692 0.818256 0)
(0.0308846 1.99659 0)
(-0.0219547 0.83396 0)
(0.0214707 0.707291 0)
(-0.000310213 0.82213 0)
(0.00276134 0.690118 0)
(0.835704 -0.0141853 0)
(0.851396 0.026665 0)
(0.765731 -0.000123312 0)
(0.826047 0.0358423 0)
(0.697203 -0.0122067 0)
(0.0153344 3.00066 3.81347e-19)
(0.0117099 3.00832 0)
(0.00651068 3.00257 0)
(0.0141407 2.99719 4.27485e-24)
(0.00837324 2.95853 -5.76318e-19)
(0.0151911 2.98188 0)
(0.0111851 2.90369 0)
(0.0257421 2.93026 8.32e-25)
(0.00489894 2.82473 0)
(0.0315485 2.91582 0)
(-0.0054722 2.74531 0)
(0.304602 3.54761 0)
(-0.145664 3.62467 0)
(0.135971 3.24584 -3.32125e-19)
(-0.0107937 2.98433 0)
(-0.330742 2.2916 0)
(-0.115288 1.85577 2.37278e-20)
(-0.081974 1.84516 -1.80489e-20)
(0.509279 0.150719 -1.38484e-19)
(0.415521 0.0386205 -1.33672e-19)
(0.49471 0.17245 -4.16329e-19)
(0.402878 0.0809392 -2.75707e-19)
(0.184171 0.914677 0)
(0.250631 1.352 -1.65595e-19)
(0.362723 1.30883 2.78269e-19)
(0.987357 0.00821987 0)
(0.94129 0.00546251 0)
(1.00031 0.000427045 0)
(1.00326 0.00949066 0)
(1.00288 0.00785586 -1.02548e-18)
(0.991776 0.00988586 7.83013e-19)
(0.000216789 0.76515 0)
(-0.00879871 0.626223 0)
(-0.0857659 0.890235 0)
(-0.0168037 0.765035 0)
(0.00360053 0.650659 0)
(0.136333 0.202179 9.03797e-20)
(0.189283 0.183346 0)
(0.993349 -0.00826783 0)
(0.954444 -0.00616469 0)
(0.779523 0.0426503 0)
(0.722292 0.0519076 0)
(0.654085 -0.0252151 0)
(0.947535 -0.00503359 0)
(0.642763 0.068735 0)
(0.472036 -0.0107065 5.72285e-19)
(-0.0363687 2.86501 2.6064e-19)
(0.0428113 2.90882 0)
(0.055091 2.88437 0)
(-0.00418252 2.69797 0)
(-0.0139018 2.98499 3.45288e-19)
(-0.0181722 2.89504 0)
(-0.0159208 2.98803 -1.07644e-18)
(-0.0132292 2.92535 3.70176e-19)
(-0.294061 1.21469 0)
(-0.323098 1.43513 0)
(-0.130199 1.68732 -5.10124e-22)
(-0.148018 1.49982 0)
(-0.117816 1.44122 0)
(0.93771 -0.007646 0)
(0.8564 -0.00826713 0)
(0.862946 0.00629724 0)
(0.948905 -0.00790074 0)
(0.883465 -0.00735079 0)
(0.545934 1.16771 -8.52694e-20)
(0.595971 1.20665 0)
(0.404812 0.925764 1.29446e-20)
(0.34483 0.781926 0)
(0.919453 1.08054 -6.45459e-20)
(1.0301 0.886621 1.30969e-19)
(0.364547 1.39425 0)
(0.531022 1.36663 0)
(0.5333 1.32369 0)
(0.114087 0.204271 -1.17668e-19)
(0.418387 0.233271 0)
(0.386085 0.119215 7.7738e-20)
(1.00504 0.939593 0)
(1.0756 0.791557 0)
(1.09835 0.733878 -1.03341e-19)
(1.12188 0.633198 0)
(1.16447 0.414821 2.3922e-20)
(0.957478 -0.00858795 0)
(0.962233 -0.0102691 0)
(0.901835 -0.0073517 0)
(0.984319 -0.00920266 0)
(0.974766 -0.00934719 0)
(0.937389 -0.00604123 0)
(1.00018 0.0021458 0)
(1.00087 0.00142274 0)
(0.99987 0.000904217 0)
(0.0289005 2.04893 1.63199e-19)
(0.0974891 1.72317 0)
(0.012496 2.15668 2.4853e-19)
(0.046205 1.83805 -2.04553e-19)
(0.104524 1.22642 -1.17681e-19)
(0.0425397 1.10689 0)
(0.117038 1.08924 0)
(0.0224073 0.940098 0)
(0.0210086 0.762554 0)
(-0.0119873 2.17614 -3.04759e-22)
(0.0365537 1.989 0)
(-0.0128837 2.15367 -1.35852e-20)
(0.025619 1.99192 2.39788e-20)
(0.0245368 0.893009 0)
(0.00805591 0.850947 0)
(0.0192511 0.73126 0)
(-0.00784116 0.801449 0)
(-0.0210008 0.661293 0)
(0.933308 0.00853032 0)
(0.840124 -0.0153366 0)
(0.924307 -0.00138075 0)
(0.83778 -0.0118104 0)
(0.8117 0.00244711 0)
(0.90259 0.0187524 0)
(0.880454 0.0225711 0)
(0.788238 0.00177456 0)
(0.00428918 3.06451 -3.3402e-21)
(0.0167377 3.05757 0)
(0.0153244 2.96901 0)
(0.00896116 2.87632 0)
(0.962603 3.9845 0)
(1.30712 3.24722 4.56597e-19)
(0.0696194 3.07676 0)
(-0.024798 2.90768 0)
(-0.35307 1.54345 0)
(-0.3675 2.20791 0)
(-0.373116 1.90244 0)
(-0.246582 2.48813 -2.74712e-20)
(-0.288315 2.44474 0)
(-0.25924 2.41521 0)
(0.00396043 1.96355 -1.61168e-21)
(-0.0409877 2.03808 9.02184e-21)
(-0.0756077 1.97754 1.81752e-20)
(-0.0191419 1.91758 0)
(0.536273 0.123902 2.06953e-19)
(0.429673 0.0157584 -2.0321e-19)
(0.271418 1.55491 0)
(0.24097 0.700598 -1.18687e-19)
(0.177402 1.64852 -3.9398e-19)
(0.199897 1.17428 3.94897e-19)
(0.901849 0.00591341 0)
(0.967411 0.010641 0)
(0.974414 0.0106177 0)
(0.923275 0.00591194 0)
(0.0128904 0.782526 0)
(-0.00347151 0.766824 0)
(-0.00085483 0.623372 0)
(0.29645 0.240354 2.51197e-19)
(0.24346 0.216722 -2.97682e-19)
(0.251506 0.179939 0)
(1.07293 0.0848955 1.00428e-20)
(1.05092 0.0386114 0)
(0.989795 0.0381233 0)
(0.886925 -0.00791275 0)
(0.561271 0.0919212 0)
(0.585489 0.0688166 -9.18389e-19)
(0.447127 0.00153763 3.46253e-19)
(0.00916847 2.98209 2.82958e-19)
(-0.0321124 2.86762 1.97488e-20)
(0.00184287 3.04964 -7.08498e-21)
(0.0208247 3.04318 2.61718e-19)
(-0.0153311 2.9963 1.21705e-20)
(-0.0127602 2.94947 -4.91088e-23)
(-0.017559 3.01151 -2.24423e-19)
(0.0142214 3.02305 1.6155e-19)
(0.00671934 3.03675 -2.61533e-19)
(0.931705 -0.00304798 0)
(0.938163 -0.00354036 0)
(0.842606 -0.00741733 0)
(0.956558 0.0114269 0)
(0.943014 0.0127264 0)
(0.881404 0.00562742 0)
(0.91856 0.0152282 0)
(0.926698 0.0143953 0)
(0.838715 0.00393519 0)
(0.76048 1.43357 4.47253e-20)
(0.803349 1.5253 0)
(0.233429 0.374193 2.87699e-20)
(0.238261 0.704046 2.29159e-19)
(0.290226 0.767617 -1.35639e-19)
(0.307739 0.576327 2.62133e-19)
(0.31871 0.794197 6.11798e-19)
(0.127725 0.23665 1.36415e-19)
(0.466789 0.197103 2.92655e-19)
(0.44038 0.217516 7.54339e-20)
(0.398718 0.103086 1.46193e-19)
(1.15567 0.471214 2.3912e-20)
(1.1616 0.268211 2.2534e-20)
(0.00357146 2.19639 9.31228e-20)
(0.0469021 1.90668 0)
(0.957215 0.0273521 0)
(0.93503 0.0103481 0)
(0.856333 -0.0183786 0)
(0.0112393 3.07426 0)
(0.0206521 2.94406 4.72067e-19)
(0.0171654 2.95627 0)
(0.00666313 2.85055 -4.70472e-19)
(0.00581853 3.09191 1.11291e-19)
(0.00574765 3.08188 0)
(0.88829 1.82896 -7.44684e-20)
(1.27203 2.38005 1.3705e-19)
(0.868523 1.93298 -4.95522e-19)
(0.0201322 2.98245 -2.41665e-19)
(0.0363047 3.00301 0)
(-0.0331313 2.87987 0)
(-0.0117937 2.12649 -1.56075e-21)
(-0.0209884 2.09074 -1.46967e-20)
(0.0216047 1.98216 -1.63059e-21)
(0.277941 1.37278 3.87581e-19)
(0.193096 0.496607 -2.64113e-19)
(0.0527827 1.97575 2.95166e-19)
(0.153988 1.86772 -3.56683e-19)
(0.148248 1.45185 3.98121e-20)
(0.00536631 3.11789 -6.53797e-19)
(0.0125903 3.11852 7.39347e-19)
(-0.00976851 2.98035 3.16e-19)
(-0.00426407 2.97768 -2.97051e-19)
(-0.0217819 2.88162 -3.22012e-19)
(0.00755975 3.0983 -8.26786e-19)
(0.000648132 3.10592 8.38763e-19)
(0.277334 0.720951 0)
(0.240929 0.714772 -4.73078e-19)
(0.128973 0.244891 2.10644e-19)
(0.337403 0.911171 4.10386e-19)
(0.173717 0.266277 -6.3458e-19)
(1.15497 0.177102 2.45633e-20)
(1.1632 0.317711 0)
(1.13943 0.126894 -1.93989e-21)
(-0.00797983 2.19317 -5.45186e-22)
(-0.00151953 2.20355 0)
(0.031908 1.95392 0)
(0.34727 1.27043 -1.40105e-19)
(0.367529 1.1019 -3.0166e-19)
(0.181791 0.354281 5.33687e-19)
(1.00554 -0.0111897 0)
(1.0075 -0.00744968 1.90304e-19)
(-0.233131 1.23391 0)
(-0.162994 1.0286 0)
(1.00198 0.00341621 7.89234e-22)
(1.00379 0.0100117 3.85234e-19)
(-0.249433 2.50487 3.6691e-20)
(-0.254817 2.4899 0)
(0.0354191 3.1788 1.63936e-19)
(0.387893 3.48286 0)
(1.1473 0.645093 -2.24995e-20)
(1.01323 0.0135578 -7.6503e-22)
(1.02111 -0.0108075 0)
(1.00175 0.000110477 2.57621e-23)
(0.097577 1.34701 0)
(0.155391 2.5791 0)
(0.029957 1.29641 0)
(0.00282302 2.6202 1.19587e-20)
(-0.029132 2.57169 8.60427e-21)
(1.00513 0.028333 1.01008e-21)
(1.06133 0.00246687 0)
(1.09141 0.0170142 0)
(-0.304832 2.17452 0)
(-0.116015 2.55204 0)
(0.00692098 1.11209 0)
(0.291753 1.45615 -7.93954e-20)
(1.01123 -0.00991706 0)
(1.0094 -0.0153709 0)
(1.0024 0.000621266 2.41607e-19)
(1.00537 -0.0048115 -2.86942e-19)
(1.0012 -0.0010776 0)
(-0.249793 1.84549 0)
(-0.220193 1.29436 0)
(-0.290013 1.60852 0)
(-0.00305167 1.06801 0)
(-0.0233223 0.981998 0)
(-0.00159693 0.920275 0)
(1.03394 -0.00740583 0)
(1.0212 0.0161987 -3.90317e-22)
(0.804166 1.24741 1.0919e-19)
(1.00224 0.000383723 -2.4112e-19)
(1.00401 0.00530884 2.86832e-19)
(1.00117 0.00211601 0)
(1.01347 0.0105593 2.38805e-19)
(1.00861 0.00867381 -2.89756e-19)
(1.00931 0.0156795 0)
(-0.174421 2.5862 0)
(-0.241869 2.54325 -1.63864e-20)
(-0.214499 2.51739 7.51344e-21)
(1.21108 0.250711 2.17293e-19)
(1.14708 0.0754007 0)
(0.0462035 3.07632 -3.758e-19)
(0.0655527 2.85209 -2.71885e-20)
(0.143686 3.19457 5.79704e-19)
(0.141217 3.22347 -7.0552e-20)
(0.132711 3.23752 0)
(0.0191737 3.13708 9.75364e-20)
(0.0765006 3.16123 3.65856e-19)
(0.0690192 3.18598 -1.8622e-19)
(0.0233556 3.12911 0)
(0.667721 0.301232 0)
(0.575858 0.357689 0)
(1.09722 0.668617 4.90568e-20)
(1.12638 0.804866 -4.08867e-20)
(1.16291 0.554293 0)
(1.20927 0.50447 0)
(1.0164 0.0136218 -4.50684e-19)
(1.01515 0.0148136 5.64661e-19)
(1.02499 -0.0102895 0)
(1.02297 -0.0124943 0)
(1.0064 0.00256168 0)
(1.0101 0.00353146 0)
(1.00458 0.00188246 0)
(1.00993 0.00596417 0)
(1.00808 0.00635016 0)
(1.00438 0.00437892 0)
(0.0884545 1.34129 0)
(0.0809827 1.31 0)
(0.11284 1.37515 0)
(0.133046 1.39793 0)
(0.147891 2.60148 0)
(0.189203 2.66006 -1.73661e-19)
(0.0974803 2.65945 0)
(0.0923378 2.65857 7.63481e-20)
(0.043494 2.68328 -5.33972e-20)
(0.0351133 1.28714 0)
(0.038183 1.21754 0)
(0.0204066 1.31827 0)
(0.0436198 1.26097 0)
(-0.0125248 1.98604 5.13147e-21)
(-0.0330227 2.60221 -6.75579e-21)
(-0.00985155 2.66339 1.00608e-21)
(-0.0201598 2.67495 0)
(-0.0409411 2.60633 -1.39277e-20)
(-0.0351819 2.60168 -5.28862e-21)
(-0.0042699 1.98875 -3.49393e-21)
(-0.0324775 2.41102 8.74124e-21)
(-0.0241576 2.4305 -1.19607e-21)
(1.01403 0.0344863 4.51495e-19)
(1.00915 0.0180648 -5.61586e-19)
(1.00586 0.0415904 -4.5534e-19)
(0.986851 0.0229267 5.78514e-19)
(1.06227 0.00667508 0)
(1.04754 -0.00915291 0)
(1.09011 0.0281224 0)
(1.07129 0.00976635 0)
(1.06896 -0.00109095 0)
(1.12812 0.0696983 0)
(1.10372 0.0351062 0)
(1.10721 0.0221283 0)
(-0.241666 2.53354 6.95905e-21)
(-0.272711 2.40989 0)
(-0.289948 2.45954 0)
(-0.108332 2.58608 -7.28698e-21)
(-0.0495063 2.57178 -2.80866e-22)
(-0.00798246 1.93675 -1.29035e-19)
(-0.121235 1.83442 1.29976e-19)
(0.0556385 1.34606 0)
(-0.0328872 1.36069 0)
(-0.099617 1.37187 0)
(0.0490039 1.11712 0)
(-0.0156696 0.978358 0)
(0.374542 1.47121 1.37425e-19)
(0.417653 1.47853 6.7671e-20)
(0.588 2.44407 -9.43384e-20)
(0.407589 2.5405 2.74775e-19)
(0.349622 2.08116 2.18104e-20)
(1.02101 -0.00828739 0)
(1.01542 -0.00993981 0)
(1.01489 -0.0161454 0)
(1.00738 -0.00133954 0)
(1.00494 -0.00108188 0)
(1.0077 -0.00467001 0)
(1.00916 -0.00385594 0)
(1.01404 -0.00455578 0)
(1.02209 0.0161086 4.43783e-19)
(1.01837 0.0162504 -5.611e-19)
(1.02244 0.0180667 -4.41905e-19)
(1.02003 0.0171349 5.54662e-19)
(0.770032 1.29775 0)
(0.707058 1.3523 1.15421e-19)
(0.872017 1.20819 4.77707e-20)
(0.933477 1.14901 -6.35515e-20)
(1.15843 2.60348 6.56819e-20)
(0.822359 0.0976233 2.26934e-19)
(1.14134 0.100944 0)
(1.18999 0.188106 -1.73004e-19)
(1.18155 0.143311 -7.26008e-21)
(1.00393 0.132993 0)
(0.160457 2.96074 1.85326e-19)
(0.116582 2.86802 -5.05865e-19)
(0.0311985 2.37881 3.18086e-19)
(0.0966303 0.0241364 -1.34212e-19)
(0.336619 3.42458 -1.01451e-19)
(0.196341 3.32083 0)
(0.228986 3.35664 1.32029e-19)
(0.25668 3.04136 -6.34291e-19)
(0.360116 3.20204 0)
(0.00613182 3.12051 1.90849e-20)
(0.0171808 3.12894 -2.29459e-19)
(0.015173 3.12484 3.36522e-19)
(0.0352213 3.13986 0)
(0.0333099 3.15041 0)
(1.19172 2.64363 0)
(0.538286 0.845634 -1.94972e-19)
(1.05627 0.975674 -4.91762e-21)
(0.962642 1.06453 0)
(0.806315 0.942738 -3.86946e-20)
(1.04345 0.879113 1.09002e-20)
(0.352722 0.415363 -3.61633e-19)
(0.702019 0.330567 -8.69754e-21)
(0.685804 0.251206 1.63719e-19)
(0.586974 0.402904 1.21548e-20)
(0.508076 0.362111 -4.9143e-19)
(0.673485 0.34777 0)
(0.707453 0.425039 2.75028e-19)
(0.715141 0.421328 0)
(0.624547 0.385157 0)
(0.608111 0.29662 0)
(0.783577 0.610926 1.57469e-19)
(1.19339 0.27863 -1.90677e-19)
(1.20153 0.411263 0)
(1.22442 0.35383 0)
(0.762433 0.197695 2.44533e-19)
(0.832863 0.54026 -1.49996e-19)
(0.739394 0.516854 2.63599e-19)
(0.93531 0.417448 -2.86767e-19)
(1.02019 0.0146899 3.00909e-19)
(1.01824 0.0143059 -3.03351e-19)
(1.01595 0.0162947 0)
(1.03548 -0.00666587 0)
(1.02934 -0.00893947 -2.83478e-19)
(1.02712 -0.0128932 2.81218e-19)
(1.02513 0.00954149 0)
(1.024 0.0128066 0)
(1.01121 0.00388166 0)
(1.01436 0.00879462 0)
(1.01467 0.00391793 0)
(1.01385 0.00293539 0)
(0.0634529 1.32422 0)
(0.0647147 1.28509 0)
(0.144495 1.32896 1.23937e-20)
(0.265519 1.45518 4.2849e-20)
(0.1506 1.42544 9.19443e-20)
(0.188546 1.43785 -1.49522e-19)
(0.164703 1.3602 0)
(0.126952 1.5905 -7.83747e-21)
(0.105269 1.55459 0)
(0.352057 2.03036 -3.15196e-20)
(0.355559 2.3757 2.25948e-19)
(0.18836 1.43713 6.85374e-21)
(0.253166 1.3593 1.72371e-20)
(0.194855 1.34417 -1.38496e-20)
(0.257902 1.30432 -1.93931e-20)
(0.228242 1.57594 0)
(0.258105 1.60699 3.02708e-20)
(0.027928 2.27743 -7.40101e-21)
(0.0379753 2.67483 0)
(0.0600826 2.41483 4.51142e-20)
(0.0547068 2.43841 0)
(0.0682883 2.67052 -8.50297e-20)
(0.0520184 2.70162 0)
(0.0282131 1.41652 1.91011e-20)
(0.0226643 1.45668 0)
(0.0272012 1.38256 0)
(0.0282426 1.39027 -2.15044e-20)
(-0.00214713 2.65044 -1.13829e-20)
(0.0261443 2.69812 5.88571e-20)
(0.0135316 2.71883 4.50389e-22)
(0.00957056 1.85773 -7.36325e-21)
(-0.00749733 1.65885 -2.52448e-21)
(0.0827213 1.23446 0)
(0.0502876 1.10939 0)
(0.0405145 1.56741 -2.26598e-20)
(0.0204728 1.4404 -2.43504e-20)
(0.0313961 1.50585 3.08632e-20)
(0.033756 1.58961 0)
(-0.101505 2.4231 1.02187e-19)
(-0.120625 2.57803 -4.70496e-20)
(-0.0495719 2.50998 4.74972e-21)
(-0.0136576 1.86571 8.86724e-21)
(-0.0637243 2.49544 2.09053e-21)
(-0.0220449 2.44316 4.77204e-21)
(1.02079 0.0207656 -2.98552e-19)
(1.01755 0.0257687 3.00016e-19)
(1.01538 0.0172891 0)
(1.01645 0.0647808 4.1363e-19)
(0.996211 0.0568962 -4.69944e-19)
(0.958528 0.0418491 5.27354e-19)
(1.01793 0.0966248 -5.58171e-20)
(1.04145 -0.00662644 0)
(1.04941 -0.00255511 2.70561e-19)
(1.03787 -0.0109573 -2.70149e-19)
(1.06985 0.038058 -1.59173e-20)
(1.06307 0.0197685 1.37638e-19)
(1.06209 0.0475455 0)
(1.05439 0.0415044 -4.93646e-20)
(1.03319 0.0378769 0)
(1.02723 0.0343104 0)
(1.02741 0.0130574 0)
(1.02443 0.01574 0)
(1.03815 0.0301919 1.01617e-19)
(1.03889 0.0243908 -2.24528e-19)
(1.05006 0.0299894 -1.08121e-19)
(1.04716 0.030381 -1.18987e-19)
(1.06656 0.0535751 2.31644e-19)
(1.08933 0.041767 0)
(1.09811 0.08601 0)
(-0.0973971 2.4377 7.26882e-20)
(-0.197524 2.36127 8.77858e-21)
(-0.154946 2.35289 0)
(-0.177793 2.5306 -7.34334e-20)
(-0.240244 2.53494 -1.4909e-20)
(-0.209636 2.53637 7.67825e-21)
(-0.0432472 2.6092 5.22887e-21)
(-0.0761457 2.5535 -1.16704e-22)
(-0.0486823 2.52858 8.27555e-22)
(-0.0553552 2.59511 -2.2825e-21)
(-0.0472888 2.5986 2.61088e-21)
(0.115487 1.60973 2.66475e-21)
(0.0722893 1.9057 -8.98436e-20)
(0.358688 1.41096 -6.08725e-20)
(0.356418 1.35919 -1.16598e-20)
(0.649747 1.40086 -1.11562e-19)
(0.515484 1.46684 -6.54507e-20)
(0.575677 1.43811 0)
(0.578976 2.42068 8.80255e-20)
(0.651074 2.41478 1.37063e-19)
(0.405891 2.51708 3.61511e-20)
(0.407849 2.55742 -2.24025e-19)
(0.522068 2.51058 2.2797e-19)
(0.540625 2.45831 0)
(0.479849 2.51172 -2.22855e-19)
(0.237382 2.58764 4.60144e-19)
(0.347993 2.56995 -3.26449e-20)
(0.282207 2.64967 -6.29963e-19)
(0.925465 2.3801 2.84322e-19)
(0.815847 2.38818 0)
(1.01088 0.000182351 9.71767e-21)
(1.0153 -0.005569 -8.05948e-21)
(1.01756 -0.00356104 -1.45025e-19)
(1.01485 -0.00110328 1.46616e-19)
(1.01216 0.000869389 0)
(0.634305 1.26645 0)
(0.646221 1.16054 0)
(0.742523 1.06501 0)
(0.643426 1.12297 0)
(1.18477 2.61466 2.75649e-20)
(1.07493 2.36135 0)
(0.853561 2.18234 1.29626e-21)
(0.824289 2.45527 0)
(0.922161 2.54317 -1.45417e-19)
(0.959918 2.50151 9.45108e-20)
(0.825658 0.144785 0)
(0.801866 0.129152 6.22599e-20)
(0.925371 0.125523 3.5833e-19)
(0.842547 0.113942 -1.3535e-19)
(0.829754 0.0608861 -4.13592e-19)
(1.06309 0.220726 -3.49568e-19)
(0.989016 0.284413 -6.3225e-21)
(0.911853 0.267304 3.342e-19)
(1.00032 0.205179 2.76965e-19)
(0.949822 0.162884 -4.74398e-19)
(0.92138 0.168759 5.93227e-20)
(0.945579 0.2263 -1.26844e-19)
(0.927943 0.193066 0)
(0.994583 0.163776 2.33518e-19)
(1.04445 0.170077 0)
(1.04004 0.199769 0)
(1.09141 0.108105 1.08839e-19)
(1.07641 0.16215 -5.74031e-21)
(1.06007 0.223687 -5.83309e-20)
(1.09501 0.193205 0)
(1.02259 0.0428336 2.31477e-19)
(1.0438 0.0525707 2.85121e-19)
(1.03332 0.0403461 -2.27319e-19)
(1.04369 0.0580371 -1.91566e-19)
(1.0171 0.06611 -2.92594e-19)
(0.993293 0.13661 0)
(1.00495 0.0943717 0)
(0.976587 0.0631265 -1.87523e-19)
(0.927104 0.0769956 7.37341e-20)
(1.04074 0.0915057 2.661e-19)
(1.07007 0.105395 -3.13281e-19)
(1.07713 0.137669 2.77476e-19)
(1.03279 0.132985 0)
(1.07346 0.0944975 0)
(1.06008 0.076104 -1.27287e-19)
(1.04874 0.0868664 -2.1735e-19)
(0.581699 1.08709 4.55847e-20)
(0.623584 1.39763 -9.88069e-21)
(1.16046 2.74007 -7.58462e-20)
(1.23748 3.07637 -6.41355e-21)
(1.24993 2.71224 -7.00762e-21)
(1.28063 2.70998 -5.36847e-20)
(1.16687 2.3533 8.3488e-21)
(1.22606 2.97004 -3.36792e-20)
(1.24775 2.93875 8.90626e-20)
(1.24283 3.23216 -8.98111e-20)
(1.36578 2.96774 1.03522e-19)
(1.30329 2.89237 0)
(0.545289 0.848878 -1.79797e-20)
(0.117702 1.25361 2.35718e-19)
(0.546872 0.470357 2.37324e-19)
(0.353703 0.213323 2.55856e-19)
(0.525996 0.407066 2.78051e-19)
(0.551189 0.479651 -4.5411e-19)
(0.5401 0.501966 3.71431e-19)
(0.490951 0.42142 -1.41439e-19)
(0.417091 0.352208 3.20057e-19)
(0.763943 0.253805 -1.39368e-19)
(0.723156 0.288822 0)
(0.718037 0.223114 3.83674e-21)
(0.722901 0.517575 1.44077e-19)
(0.697232 0.481806 -5.27746e-19)
(0.603381 0.488715 5.58645e-21)
(0.622691 0.471504 0)
(0.659148 0.74126 1.50854e-19)
(0.823321 0.775438 1.40577e-19)
(0.742771 0.85874 -1.64564e-19)
(0.857597 0.799426 -5.70952e-20)
(0.883998 0.830532 -1.39043e-20)
(0.891202 0.833309 1.4283e-20)
(0.829442 0.63422 -2.63034e-19)
(0.900008 0.705172 5.32183e-20)
(0.954194 0.709981 0)
(0.935016 0.677893 -7.66394e-20)
(1.01452 0.309135 8.17797e-20)
(1.10159 0.284183 1.13205e-19)
(1.04735 0.258714 1.40138e-19)
(0.999681 0.354095 -1.66267e-19)
(1.03508 0.420235 0)
(1.07645 0.401853 0)
(0.903713 0.344082 2.37537e-21)
(0.840858 0.283605 0)
(0.865222 0.277129 1.57295e-19)
(0.903073 0.274931 -3.91859e-21)
(0.924814 0.419334 7.98654e-19)
(0.88246 0.48321 2.07506e-19)
(0.885069 0.44632 -2.23639e-19)
(0.811737 0.434034 2.39884e-19)
(0.796409 0.43388 1.45728e-19)
(0.765326 0.420085 -1.41888e-19)
(1.02726 -0.000594054 2.39084e-19)
(1.01987 -0.000309617 0)
(1.01853 0.00055392 1.58421e-19)
(1.02125 -0.00230125 -3.5705e-19)
(1.02223 0.00404699 1.73802e-19)
(1.02056 0.0108715 -3.65721e-19)
(1.02169 0.0102029 0)
(1.02113 0.0103659 -7.56247e-20)
(1.016 0.00762807 1.89411e-19)
(1.01692 0.0101605 -9.58441e-20)
(1.01762 0.0094219 7.05534e-20)
(0.0360397 1.31371 0)
(0.0398413 1.35305 0)
(0.0513046 1.30779 0)
(0.0412246 1.26906 0)
(0.0679947 1.36518 -4.24941e-20)
(0.0776144 1.33343 1.7185e-20)
(0.109871 1.48459 8.39157e-23)
(0.0810296 1.33047 -5.30531e-21)
(0.0310647 1.44395 1.61607e-20)
(0.0349618 1.4339 -1.20652e-20)
(0.0631455 1.34629 -9.5171e-22)
(0.0583315 1.34713 2.7375e-20)
(0.0522388 1.32597 3.71839e-21)
(0.0405264 1.35229 2.51657e-21)
(0.105971 2.38844 -4.83713e-20)
(0.0895981 2.43192 0)
(0.164763 2.08202 3.72754e-20)
(0.110247 1.70837 8.84862e-21)
(0.232567 2.06935 -2.92781e-20)
(0.211287 2.45606 0)
(0.272579 2.41103 -2.11636e-19)
(0.306445 2.41024 1.49927e-19)
(0.222774 2.02154 -8.64938e-20)
(0.148336 2.18704 6.1045e-20)
(0.155047 2.31139 0)
(0.006659 1.88612 1.52944e-20)
(-0.0159352 2.4056 -7.2166e-21)
(-0.00115539 2.16583 0)
(0.00479959 2.46733 -5.70077e-21)
(0.0140579 2.31717 -2.67181e-21)
(0.0328887 1.41149 -4.18619e-21)
(0.0778882 1.37823 7.80766e-20)
(0.0878256 1.42008 -2.72503e-20)
(0.0220053 1.41231 -2.08615e-20)
(0.0291582 1.42299 0)
(0.0870687 1.40028 0)
(0.0479301 1.14441 -5.5178e-20)
(0.119807 1.37935 1.68151e-20)
(0.124046 1.37804 0)
(0.0670915 1.17749 -3.10415e-20)
(0.0537842 0.96966 7.21703e-20)
(1.03961 0.00982995 0)
(1.04481 0.00650612 -2.52228e-20)
(1.03847 0.0199106 -1.80804e-19)
(1.04725 0.0186573 0)
(1.0512 0.0185278 0)
(1.03658 0.0101928 -2.71931e-21)
(1.0317 0.00983013 2.91991e-19)
(1.03176 0.0153359 3.57028e-19)
(1.02586 0.0193877 0)
(1.02381 0.0198742 0)
(1.03487 0.0236137 1.8137e-19)
(1.02685 0.0246948 0)
(1.02568 0.0242047 0)
(0.00042066 2.09934 0)
(0.0418681 1.89992 1.14861e-20)
(0.0401788 1.96738 -2.69068e-20)
(0.0907129 1.38951 0)
(0.12456 1.68454 -2.96947e-20)
(0.134967 1.52841 3.1016e-20)
(0.0980775 1.41683 0)
(0.386798 1.69608 0)
(0.360715 1.28164 1.16393e-20)
(0.312074 1.34028 0)
(0.416665 1.27856 -4.19181e-20)
(0.461902 1.44309 0)
(0.441765 1.38772 2.86873e-20)
(1.02812 2.68804 -6.05981e-21)
(0.953988 2.41353 -3.47544e-19)
(0.899473 2.18477 4.14253e-19)
(0.831415 2.38166 1.08002e-19)
(0.841024 2.50625 0)
(0.910699 2.49585 0)
(0.900453 2.37688 0)
(0.912679 2.34913 -3.86719e-19)
(0.688927 2.47358 -1.43286e-19)
(0.796192 2.47054 -3.51388e-20)
(0.810025 2.43751 2.78329e-20)
(0.686858 2.38963 0)
(0.783306 2.38909 0)
(0.747112 2.39801 -1.44987e-19)
(0.762854 2.50291 0)
(0.616465 1.09869 0)
(0.485375 0.924022 -1.73302e-19)
(0.565313 0.950694 -1.13635e-20)
(0.528187 1.0564 0)
(0.530101 1.0074 2.62578e-19)
(0.766841 0.887552 -4.54117e-20)
(0.774882 1.00404 0)
(0.746995 0.948598 6.57437e-20)
(0.634778 1.0399 0)
(0.643434 0.943692 0)
(1.16594 2.75485 -8.44955e-20)
(1.14273 2.82048 -3.30622e-20)
(0.939304 2.33541 3.03311e-20)
(0.900504 2.31523 -3.11561e-20)
(1.12887 2.72606 0)
(1.08124 2.69489 3.93012e-20)
(1.08736 2.47933 -1.229e-19)
(0.982388 2.23029 -1.36025e-20)
(0.501378 1.3662 0)
(0.509751 1.07612 -3.99613e-20)
(0.5586 1.13983 0)
(0.864555 0.21346 0)
(0.806174 0.170616 0)
(0.760044 0.145609 0)
(0.856878 0.222667 -2.48616e-19)
(0.781569 0.216231 1.4682e-19)
(0.937179 0.0629221 -1.53244e-19)
(0.951924 0.107645 0)
(0.928137 0.111803 6.61896e-20)
(0.868753 0.0882416 2.66702e-19)
(0.856921 0.0504164 -1.66966e-19)
(1.17322 3.36737 -3.26966e-19)
(1.22453 3.28905 0)
(1.13901 3.38544 -6.38219e-19)
(0.638952 3.54392 5.58801e-19)
(0.85073 3.10944 4.34317e-20)
(0.508168 0.8559 2.24878e-19)
(0.418575 0.849109 0)
(0.326309 0.51523 -5.75266e-20)
(0.445859 0.686086 3.19104e-19)
(0.541078 0.483468 -8.01938e-20)
(0.513856 0.530906 9.01422e-20)
(0.647269 0.539798 1.97574e-19)
(0.681345 0.553346 0)
(0.638465 0.620053 0)
(0.594002 0.555229 0)
(0.95101 0.592579 3.57203e-20)
(0.884248 0.531089 -2.00229e-19)
(0.905256 0.56238 1.52995e-19)
(0.939425 0.501461 -1.55812e-19)
(1.04751 0.474881 0)
(1.04185 0.557382 -3.81588e-20)
(0.836279 0.387257 -3.30282e-19)
(0.841889 0.372885 -3.98454e-19)
(0.790827 0.381957 2.56376e-19)
(0.786364 0.357649 -2.64022e-19)
(0.838665 0.311304 -2.05702e-19)
(0.790196 0.310346 2.53264e-19)
(1.02665 0.00543725 -1.85512e-19)
(1.02632 0.00588197 3.84404e-19)
(1.02915 -0.000868089 2.3134e-19)
(1.03321 0.000687182 -2.80442e-19)
(1.03256 0.00676018 0)
(1.02996 0.00788489 -4.59109e-19)
(0.0533253 1.63581 4.80754e-21)
(0.0397232 1.56269 0)
(0.0786671 1.68219 3.12861e-20)
(0.089036 1.66741 -2.68398e-20)
(0.0805812 1.5074 -1.56759e-22)
(0.0834783 1.49432 0)
(0.0417576 1.73841 0)
(0.0560012 1.58299 6.77621e-21)
(0.0871533 1.50191 -6.08864e-21)
(0.0718282 1.66609 8.90104e-21)
(0.0207998 1.9645 1.66391e-20)
(0.0111395 1.97239 -1.69431e-21)
(0.499105 1.37755 -6.6703e-20)
(0.494465 1.38781 7.24899e-20)
(0.441152 1.2776 1.27278e-20)
(0.436056 1.29288 1.17088e-21)
(0.624165 1.28563 0)
(0.539397 1.37326 6.43321e-20)
(0.558934 1.38464 -6.24387e-20)
(0.448479 1.2668 -1.23301e-20)
(0.507156 1.22244 0)
(0.554917 1.18774 0)
(0.651144 2.43189 2.1507e-19)
(0.672321 2.47229 4.68674e-19)
(0.709796 2.48776 -3.21612e-19)
(0.610519 2.4727 -7.88449e-20)
(0.564225 2.55826 1.08337e-19)
(0.523468 2.5384 -2.82122e-19)
(0.97157 2.37454 -2.29964e-19)
(1.00999 2.38682 0)
(0.915442 2.16472 -2.7059e-19)
(1.05069 2.67618 0)
(1.05335 2.66289 0)
(0.605697 2.25558 -4.511e-20)
(1.02889 3.15886 7.13057e-20)
(0.896918 3.01825 -1.63696e-20)
(0.287993 0.916349 0)
(0.32538 0.759451 -1.20981e-19)
(0.464525 0.725651 -1.14688e-19)
(0.400167 1.98419 0)
(0.479855 2.78716 -3.07486e-20)
(0.434504 2.5707 0)
(0.670476 0.679261 -3.17871e-19)
(0.753623 0.685261 4.27609e-19)
(0.779824 0.620963 -4.19957e-19)
(0.660968 0.643734 -4.15842e-20)
(0.710837 0.598775 -1.71106e-19)
(1.01373 2.76494 -5.38511e-20)
(1.04604 2.83365 -2.00353e-20)
(0.654975 2.13781 2.51426e-19)
(0.584306 1.71817 -1.75915e-19)
(0.711063 1.90835 -1.39492e-19)
(0.996499 2.46912 -4.27583e-20)
(0.997154 2.45633 7.70109e-20)
(0.66735 1.87432 7.61874e-21)
(0.460873 1.33971 4.8382e-20)
)
;

boundaryField
{
    wall-4
    {
        type            noSlip;
    }
    velocity-inlet-5
    {
        type            fixedValue;
        value           uniform (1 0 0);
    }
    velocity-inlet-6
    {
        type            fixedValue;
        value           uniform (0 3 0);
    }
    pressure-outlet-7
    {
        type            zeroGradient;
    }
    wall-8
    {
        type            noSlip;
    }
    frontAndBackPlanes
    {
        type            empty;
    }
}


// ************************************************************************* //
