/*--------------------------------*- C++ -*----------------------------------*\
| =========                 |                                                 |
| \\      /  F ield         | OpenFOAM: The Open Source CFD Toolbox           |
|  \\    /   O peration     | Version:  4.0                                   |
|   \\  /    A nd           | Web:      www.OpenFOAM.org                      |
|    \\/     M anipulation  |                                                 |
\*---------------------------------------------------------------------------*/
FoamFile
{
    version     2.0;
    format      ascii;
    class       volVectorField;
    location    "24";
    object      U;
}
// * * * * * * * * * * * * * * * * * * * * * * * * * * * * * * * * * * * * * //

dimensions      [0 1 -1 0 0 0 0];

internalField   nonuniform List<vector> 
918
(
(0.985161 -0.000514263 0)
(0.00500506 2.96625 0)
(-0.0178779 1.53344 0)
(0.979702 0.00215443 0)
(-0.000891631 1.5226 2.5864e-20)
(-0.00703426 2.94878 -1.85096e-18)
(0.849041 1.19051 7.33303e-19)
(0.389784 0.17647 -8.90866e-21)
(0.999907 -0.000291258 0)
(0.0524656 0.849676 0)
(-0.046399 0.701654 0)
(0.739252 -0.0109195 0)
(0.0110991 2.93035 0)
(0.00200265 2.79451 0)
(-0.0175118 3.16554 1.08486e-18)
(0.0170878 1.3707 9.07158e-20)
(0.496881 0.0759346 5.56633e-19)
(0.192242 1.21587 6.37999e-19)
(0.96301 0.00504084 0)
(-0.00948264 1.18996 0)
(0.118416 0.227026 -4.6214e-19)
(1.00204 -0.00498552 0)
(1.00021 -0.00978974 0)
(0.975717 -0.00645486 0)
(0.645722 -0.0408449 0)
(0.016715 2.63459 0)
(-0.0150339 2.91012 6.37971e-19)
(-0.0277724 1.54887 0)
(-0.0407706 1.70059 0)
(-0.0261587 1.54285 0)
(-0.0076495 1.9058 0)
(0.013423 1.55422 -2.04506e-20)
(0.00660852 1.39827 0)
(-0.0206261 2.98759 -6.46612e-23)
(-0.0167016 3.00531 1.43876e-18)
(0.00210614 3.00021 0)
(0.870099 -0.00956732 0)
(0.399108 0.937199 -3.51209e-20)
(0.824736 1.20999 -1.02701e-18)
(0.972623 1.04268 9.63108e-19)
(0.69327 1.30682 -1.70124e-19)
(0.691993 1.29701 9.51594e-19)
(0.429168 0.270261 8.69186e-21)
(0.422324 0.162094 0)
(1.15935 0.560117 0)
(0.391173 0.277231 4.04637e-20)
(0.342186 0.174756 -4.19938e-20)
(0.919574 -0.00745706 0)
(1.00028 0.000145535 0)
(0.999908 0.000345644 0)
(1.00362 -0.0077988 0)
(1.00096 -0.000984766 0)
(1.00017 1.36313e-05 0)
(0.0854771 1.78132 -2.04554e-19)
(0.0235983 0.982487 0)
(0.10423 0.931394 0)
(0.0319035 0.920972 0)
(0.0313804 0.769761 0)
(-0.0992572 1.79621 0)
(-0.0336715 0.778968 0)
(-0.00524766 0.62613 0)
(-0.0491796 0.860567 0)
(-0.0467175 0.817579 0)
(0.831042 -0.0107099 0)
(0.853542 0.0189663 0)
(0.765681 0.00196905 0)
(0.837608 0.021098 0)
(0.724315 -0.0169784 0)
(0.0147018 3.00039 6.77266e-19)
(0.0115281 3.00789 0)
(0.00613867 3.00284 0)
(0.0135416 2.99732 7.54624e-24)
(0.00799815 2.95847 -1.00658e-18)
(0.0144801 2.98207 0)
(0.0107775 2.90366 0)
(0.025159 2.93045 1.34392e-24)
(0.0042105 2.82483 0)
(0.031249 2.91564 0)
(-0.00641713 2.7446 0)
(0.311579 3.56616 0)
(-0.132321 3.64847 0)
(0.141407 3.25636 -1.00962e-18)
(-0.011228 2.98855 0)
(-0.0616648 1.85527 0)
(0.0546885 1.5429 -8.94994e-20)
(0.0148271 1.3342 1.35036e-19)
(0.564078 0.157087 -1.91815e-19)
(0.500247 0.0454766 -1.86015e-19)
(0.545154 0.177701 -5.77705e-19)
(0.487598 0.098177 -3.89663e-19)
(0.219364 0.906574 0)
(0.271751 1.36053 -6.64984e-19)
(0.392097 1.31453 1.09196e-18)
(0.987693 0.00860449 0)
(0.942154 0.00596047 0)
(1.0003 0.000580721 0)
(1.00286 0.00930508 0)
(1.003 0.00845249 -1.07406e-18)
(0.991929 0.00968634 8.11009e-19)
(-0.0335766 1.3199 0)
(-0.0335831 1.1288 0)
(-0.0425153 1.5491 0)
(-0.0303089 1.41098 0)
(-0.00652979 1.26498 0)
(0.174736 0.235998 1.42433e-19)
(0.222669 0.212453 0)
(0.993524 -0.00835059 0)
(0.954368 -0.00641525 0)
(0.804337 0.0274639 0)
(0.769635 0.038622 0)
(0.699609 -0.0317465 0)
(0.975272 -0.0037249 0)
(0.708438 0.0554112 0)
(0.551374 -0.0197396 7.41221e-19)
(-0.0360265 2.86542 3.22972e-19)
(0.0431589 2.90831 0)
(0.0559663 2.88365 0)
(-0.00513491 2.69745 0)
(-0.0132304 2.98522 5.85488e-19)
(-0.0182129 2.8954 0)
(-0.0153743 2.98814 -1.85422e-18)
(-0.0134203 2.92522 6.40635e-19)
(-0.0550739 1.77755 0)
(-0.0531257 1.79326 0)
(0.0322236 1.54314 1.94043e-21)
(0.0207205 1.52943 0)
(0.000189697 1.38582 0)
(0.93722 -0.00707411 0)
(0.855571 -0.00918449 0)
(0.864848 0.00790843 0)
(0.948637 -0.00769495 0)
(0.883262 -0.00872878 0)
(0.512931 1.13248 3.28918e-20)
(0.564191 1.1864 0)
(0.359394 0.877123 3.90736e-21)
(0.30216 0.738518 0)
(0.932453 1.08097 -2.7866e-19)
(1.04581 0.879658 5.7063e-19)
(0.386202 1.40262 0)
(0.547033 1.37418 0)
(0.549043 1.33408 0)
(0.100195 0.161657 -1.28645e-19)
(0.472514 0.254947 0)
(0.456499 0.152139 1.1202e-19)
(1.01588 0.933875 0)
(1.08349 0.779042 0)
(1.10865 0.721497 -5.00622e-19)
(1.13951 0.619379 0)
(1.19067 0.403798 5.78084e-20)
(0.957287 -0.00872609 0)
(0.962181 -0.0101092 0)
(0.901176 -0.00808986 0)
(0.984159 -0.00914922 0)
(0.974526 -0.00944682 0)
(0.936961 -0.00627538 0)
(1.00018 0.00234453 0)
(1.00086 0.00138418 0)
(0.999918 0.000855949 0)
(0.0377736 2.02659 1.36098e-19)
(0.1233 1.70707 0)
(0.0169763 2.12661 9.71611e-20)
(0.0448065 1.85937 -1.58898e-20)
(0.136428 1.20585 -5.28663e-19)
(0.0494771 1.06996 0)
(0.0968924 1.07195 0)
(-0.00212288 0.852979 0)
(-0.00620432 0.709305 0)
(-0.0690171 2.05638 3.30735e-21)
(-0.0374478 1.90148 0)
(-0.086381 1.91946 2.0684e-19)
(-0.101388 1.62543 -4.2488e-19)
(0.0208112 0.807706 0)
(0.0110639 0.768555 0)
(0.00017085 0.649074 0)
(-0.0599554 0.968854 0)
(-0.0484805 0.915849 0)
(0.926308 0.0114316 0)
(0.844277 -0.00586099 0)
(0.917745 0.000693362 0)
(0.835077 -0.0118944 0)
(0.813422 0.00557847 0)
(0.903947 0.0166495 0)
(0.881646 0.0195977 0)
(0.788506 0.00378193 0)
(0.00591306 3.06493 -5.9374e-21)
(0.0164662 3.0579 0)
(0.0147015 2.96914 0)
(0.0085973 2.87636 0)
(0.930183 3.98662 0)
(1.24621 3.31715 1.01619e-18)
(0.0714475 3.08056 0)
(-0.0267229 2.90936 0)
(-0.0771328 1.78358 0)
(-0.0830485 1.8382 0)
(-0.0652964 1.81007 0)
(-0.0315612 1.89947 4.04667e-21)
(-0.0733446 1.87533 0)
(-0.0457986 1.86832 0)
(-0.00931298 1.37445 -2.39211e-20)
(0.0487346 1.56945 -2.20687e-19)
(0.063347 1.54271 -1.37873e-19)
(0.00246611 1.3184 0)
(0.594879 0.12449 2.81864e-19)
(0.51593 0.0173494 -2.75102e-19)
(0.259949 1.535 0)
(0.260053 0.676155 -2.07445e-19)
(0.171953 1.62409 -6.95069e-19)
(0.230629 1.15646 6.96932e-19)
(0.902936 0.00663052 0)
(0.967683 0.0108435 0)
(0.974779 0.0108098 0)
(0.923824 0.00668215 0)
(-0.0642743 1.09379 0)
(-0.0474792 1.21839 0)
(-0.0517632 1.03311 0)
(0.340284 0.271077 3.70568e-19)
(0.284183 0.250467 -4.50669e-19)
(0.292081 0.192672 0)
(1.10156 0.0863581 -4.1066e-21)
(1.08604 0.04024 0)
(1.01373 0.0402138 0)
(0.912416 0.0037884 0)
(0.617536 0.0953053 0)
(0.648871 0.068959 -1.1934e-18)
(0.531678 0.00262392 4.56078e-19)
(0.00963791 2.9822 4.13119e-19)
(-0.0319735 2.86756 4.90026e-20)
(0.00372221 3.05022 -1.28408e-20)
(0.0200233 3.04346 4.61651e-19)
(-0.0150094 2.99655 2.13133e-20)
(-0.0129655 2.94942 -8.63091e-23)
(-0.0172781 3.01201 -4.04601e-19)
(0.0147926 3.02406 2.92703e-19)
(0.00730589 3.03677 -4.56802e-19)
(0.928768 -0.00149338 0)
(0.936792 -0.00325579 0)
(0.843097 -0.00740747 0)
(0.957072 0.0113555 0)
(0.943774 0.0126642 0)
(0.883007 0.00644796 0)
(0.919715 0.0153429 0)
(0.927851 0.0144824 0)
(0.840364 0.00681964 0)
(0.720155 1.41577 3.32875e-19)
(0.755074 1.52641 0)
(0.218627 0.353578 2.43984e-20)
(0.178452 0.609775 2.10635e-19)
(0.265279 0.698729 -1.17471e-19)
(0.246405 0.574293 2.17861e-19)
(0.302816 0.717581 7.36698e-19)
(0.111024 0.192355 2.13931e-19)
(0.528394 0.205119 4.17802e-19)
(0.505424 0.235342 1.055e-19)
(0.48078 0.130609 2.11134e-19)
(1.17961 0.460719 3.00495e-19)
(1.19554 0.256194 3.12931e-19)
(0.0151144 2.14283 -9.21669e-21)
(0.0270978 1.93586 0)
(0.96507 0.0312701 0)
(0.932982 0.0187645 0)
(0.868597 -0.00498153 0)
(0.0111046 3.07451 0)
(0.0199649 2.94423 7.90272e-19)
(0.0165003 2.95643 0)
(0.00617592 2.85065 -7.83787e-19)
(0.0062417 3.09205 1.8707e-19)
(0.00717832 3.08237 0)
(0.788878 1.83115 -2.40915e-19)
(1.25362 2.51366 6.64118e-19)
(0.771494 1.97204 -1.49866e-18)
(0.0207569 2.98345 -2.99928e-19)
(0.0368621 3.00541 0)
(-0.0328744 2.88087 0)
(-0.0582907 1.75318 -1.83001e-20)
(0.0137544 1.65533 5.04771e-19)
(-0.0179735 1.48755 -1.96275e-20)
(0.276114 1.34412 6.75098e-19)
(0.210797 0.452338 -4.65488e-19)
(0.0621193 1.95369 4.49435e-19)
(0.135743 1.84585 -5.67112e-19)
(0.180225 1.44644 8.56465e-20)
(0.00586566 3.11797 -9.82115e-19)
(0.0139812 3.11852 1.0636e-18)
(-0.00892892 2.98065 5.08717e-19)
(-0.00330047 2.97752 -4.49912e-19)
(-0.0216656 2.88174 -5.18117e-19)
(0.0086046 3.09871 -1.36724e-18)
(0.00187835 3.10638 1.35815e-18)
(0.242015 0.632724 0)
(0.197242 0.622955 -3.90213e-19)
(0.109001 0.208741 1.77201e-19)
(0.325801 0.838611 6.40781e-19)
(0.172435 0.231994 -9.80231e-19)
(1.18778 0.172943 -5.90516e-20)
(1.19481 0.309117 0)
(1.17656 0.120796 1.22655e-19)
(-0.066509 2.12367 2.52457e-21)
(-0.0266122 2.16647 0)
(-0.0187875 1.95756 0)
(0.335793 1.23677 -2.45278e-19)
(0.351897 1.05188 -5.20043e-19)
(0.186194 0.325903 8.93146e-19)
(1.00583 -0.0109544 0)
(1.00762 -0.00764862 1.95788e-19)
(-0.0669114 1.7405 0)
(-0.0732313 1.73951 0)
(1.00224 0.00352131 1.82909e-21)
(1.00357 0.00930288 4.03187e-19)
(-0.0300817 1.92071 -5.21207e-21)
(-0.0179202 1.93645 0)
(0.038567 3.18218 1.10638e-19)
(0.400253 3.50081 0)
(1.12246 0.643369 6.72591e-20)
(1.01308 0.0129889 -2.01534e-21)
(1.02098 -0.0106807 0)
(1.00174 6.19405e-05 8.91043e-23)
(0.117297 1.35724 0)
(0.136161 2.57175 0)
(-0.0935239 1.02964 0)
(-0.0923665 2.6839 -2.80331e-19)
(-0.235396 2.57368 -2.00325e-19)
(1.00793 0.0238603 2.87627e-21)
(1.05411 -0.00316344 0)
(1.07821 0.0269897 0)
(-0.0958802 1.83495 0)
(-0.0391869 2.07615 0)
(-0.161842 1.56904 0)
(0.284943 1.46622 -4.39396e-19)
(1.01123 -0.00965154 0)
(1.00942 -0.0150927 0)
(1.00252 0.000584415 2.49983e-19)
(1.00547 -0.00495872 -2.9421e-19)
(1.00122 -0.0010396 0)
(-0.125364 1.79739 0)
(-0.0930179 1.73956 0)
(-0.0967864 1.77914 0)
(-0.140845 1.58197 0)
(-0.0925331 1.66506 0)
(-0.102186 1.6434 0)
(1.03449 -0.00757193 0)
(1.02063 0.014995 -1.14227e-21)
(0.780425 1.25868 5.21883e-19)
(1.00218 0.000340179 -2.47766e-19)
(1.00408 0.00525627 2.93932e-19)
(1.00119 0.00207378 0)
(1.01293 0.0102573 2.4289e-19)
(1.00801 0.00815746 -3.01685e-19)
(1.00876 0.014556 0)
(-0.0327785 2.06478 0)
(-0.0297294 1.99061 -4.09222e-20)
(-0.0187689 2.00452 3.47295e-20)
(1.19471 0.259505 -7.942e-20)
(1.13271 0.0884817 0)
(0.0498486 3.07764 -5.08583e-19)
(0.0676139 2.85181 -4.06623e-20)
(0.146787 3.19595 8.13239e-19)
(0.141278 3.22513 6.75147e-22)
(0.139323 3.24035 0)
(0.0206113 3.13813 1.10159e-19)
(0.079473 3.16171 4.95394e-19)
(0.0722042 3.18858 -2.12974e-19)
(0.0240724 3.12904 0)
(0.659695 0.324219 0)
(0.581663 0.372706 0)
(1.09458 0.673187 -2.56836e-19)
(1.09314 0.809035 3.96277e-19)
(1.15227 0.561772 0)
(1.18384 0.506934 0)
(1.01617 0.0131072 -4.49242e-19)
(1.01499 0.0140233 5.60894e-19)
(1.02505 -0.0105574 0)
(1.02317 -0.0122212 0)
(1.0068 0.00244651 0)
(1.01057 0.00355583 0)
(1.00449 0.00166227 0)
(1.00992 0.006258 0)
(1.0079 0.00603518 0)
(1.00436 0.00435911 0)
(0.109631 1.35272 0)
(0.105305 1.29173 0)
(0.11958 1.38899 0)
(0.141801 1.39964 0)
(0.140649 2.59385 0)
(0.184763 2.6519 -1.98787e-19)
(0.105991 2.64692 0)
(0.0801575 2.65283 -2.0976e-20)
(0.0342892 2.66541 2.20394e-19)
(-0.102178 1.02838 0)
(-0.137949 1.00943 0)
(0.0141838 1.04109 0)
(0.0318612 0.956273 0)
(-0.00824326 2.26874 4.55106e-19)
(-0.228345 2.63136 -3.38464e-19)
(-0.158137 2.71173 -4.02031e-19)
(-0.190369 2.67683 0)
(-0.225573 2.57098 4.86924e-19)
(-0.204923 2.49987 3.61299e-19)
(-0.0268336 2.30467 -3.34028e-19)
(-0.230062 2.59098 4.76506e-19)
(-0.188998 2.58282 5.11491e-19)
(1.01642 0.0328695 4.43658e-19)
(1.00907 0.0206762 -5.47967e-19)
(1.00849 0.0328509 -4.57316e-19)
(0.990616 0.0137671 5.91139e-19)
(1.05472 0.000694616 0)
(1.04221 -0.014928 0)
(1.07598 0.0327947 0)
(1.05988 0.00825547 0)
(1.05681 0.00146612 0)
(1.1168 0.0793286 0)
(1.089 0.0477373 0)
(1.09078 0.0404094 0)
(-0.0787678 1.9157 -2.0286e-22)
(-0.118831 1.88125 0)
(-0.0876764 1.88491 0)
(-0.0705229 2.159 -3.75362e-20)
(-0.0566962 2.18275 3.61971e-21)
(-0.219329 1.83963 -1.04317e-20)
(-0.152583 1.79601 1.05699e-20)
(-0.197611 1.66649 0)
(-0.154837 1.71497 0)
(-0.132986 1.72729 0)
(-0.203103 1.50043 0)
(-0.132387 1.39517 0)
(0.375593 1.4793 8.3395e-19)
(0.404176 1.49315 3.28925e-19)
(0.591953 2.43506 -1.53387e-19)
(0.409753 2.52885 4.20244e-19)
(0.357105 2.08723 -5.06809e-20)
(1.02097 -0.00866844 0)
(1.01543 -0.0100744 0)
(1.01476 -0.0155973 0)
(1.00784 -0.00138303 0)
(1.00482 -0.00128017 0)
(1.00767 -0.00479452 0)
(1.00916 -0.00368717 0)
(1.0141 -0.00461028 0)
(1.02158 0.0155895 4.26944e-19)
(1.01764 0.0156163 -5.49728e-19)
(1.02251 0.0179592 -4.2689e-19)
(1.01921 0.0171399 5.34525e-19)
(0.752429 1.30917 0)
(0.686867 1.36444 6.15613e-19)
(0.858024 1.20054 3.59852e-19)
(0.903569 1.15712 -4.78977e-19)
(1.15445 2.61802 -5.57523e-19)
(0.834584 0.102329 2.89839e-19)
(1.13337 0.102384 0)
(1.17672 0.183068 6.82657e-20)
(1.16206 0.157853 3.01893e-21)
(0.989654 0.124558 0)
(0.144389 2.96469 1.36574e-19)
(0.12229 2.8705 -6.6287e-19)
(0.0332558 2.36156 4.74991e-19)
(0.0988407 0.0663678 -1.99712e-19)
(0.345018 3.42913 -4.41522e-19)
(0.199126 3.31975 0)
(0.240679 3.36385 5.75001e-19)
(0.253158 3.03842 -7.63973e-19)
(0.347647 3.19821 0)
(0.00665647 3.12071 2.60215e-20)
(0.0179768 3.12943 -3.30369e-19)
(0.0155446 3.12542 4.86254e-19)
(0.0369003 3.1399 0)
(0.0353214 3.15137 0)
(1.2188 2.6192 0)
(0.535792 0.847513 -2.38092e-19)
(1.02394 0.983816 -2.05335e-19)
(0.961958 1.05032 0)
(0.804507 0.948833 5.54624e-20)
(1.0463 0.864785 2.98801e-20)
(0.396153 0.432437 -5.31319e-19)
(0.699242 0.340903 -2.42762e-20)
(0.684516 0.27095 2.2635e-19)
(0.595385 0.403378 1.75988e-20)
(0.528723 0.378984 -7.20803e-19)
(0.669637 0.357723 0)
(0.693417 0.430164 3.70643e-19)
(0.695235 0.428599 0)
(0.628276 0.392246 0)
(0.616303 0.325997 0)
(0.776 0.598693 1.29245e-19)
(1.19273 0.277006 5.11571e-20)
(1.18937 0.411237 0)
(1.20105 0.36131 0)
(0.770419 0.200787 3.32525e-19)
(0.823804 0.53903 -1.83993e-19)
(0.733522 0.507704 2.99679e-19)
(0.916116 0.41908 -2.7943e-19)
(1.01964 0.0144755 2.95826e-19)
(1.0179 0.0140262 -3.02526e-19)
(1.01585 0.015386 0)
(1.0352 -0.00644595 0)
(1.02934 -0.00918554 -2.71775e-19)
(1.02709 -0.0131153 2.68974e-19)
(1.02522 0.00911454 0)
(1.02413 0.0127012 0)
(1.01137 0.00378403 0)
(1.01429 0.00860482 0)
(1.01514 0.003259 0)
(1.01421 0.00238565 0)
(0.105034 1.30385 0)
(0.102323 1.15761 0)
(0.13362 1.36765 3.38942e-19)
(0.266894 1.46129 2.51558e-19)
(0.171205 1.43456 5.36952e-19)
(0.195933 1.43938 -8.73761e-19)
(0.1686 1.38006 0)
(0.115715 1.5945 2.73884e-19)
(0.0728733 1.56208 0)
(0.35334 2.04241 7.36623e-20)
(0.352046 2.36548 2.28814e-19)
(0.159513 1.45657 -2.39293e-19)
(0.267924 1.36015 1.91484e-19)
(0.189674 1.363 -1.53668e-19)
(0.280612 1.30461 3.20971e-19)
(0.254339 1.58167 0)
(0.253938 1.62732 -2.13054e-19)
(0.0538798 2.29842 1.08396e-19)
(0.039174 2.66863 0)
(0.0604644 2.39515 -1.67352e-19)
(0.0439915 2.41925 0)
(0.0794479 2.65372 2.19315e-20)
(0.0551623 2.68986 0)
(-0.0131901 1.46042 5.35511e-19)
(0.141258 1.63264 0)
(0.141968 1.33941 0)
(0.0184716 1.27097 -6.03617e-19)
(-0.0823208 2.70195 -3.88832e-20)
(0.0225319 2.70342 -3.20053e-19)
(-0.0528078 2.7306 -2.01008e-21)
(-0.378823 2.20589 -2.65794e-19)
(-0.196466 2.09977 -2.08246e-19)
(-0.147964 1.0893 0)
(-0.113297 1.08782 0)
(0.167712 1.74282 -5.83136e-19)
(0.188221 1.49642 -6.00757e-19)
(0.155973 1.68039 7.55839e-19)
(0.15149 1.73856 0)
(-0.205438 2.04106 1.37711e-19)
(-0.166292 2.16447 -6.15452e-20)
(-0.204547 2.2264 2.4179e-20)
(-0.38363 2.10253 3.21618e-19)
(-0.258672 2.39346 7.39534e-20)
(-0.267864 2.45417 -3.81855e-19)
(1.02131 0.021976 -2.9079e-19)
(1.01793 0.0274251 2.92533e-19)
(1.01408 0.0201222 0)
(1.01252 0.050377 4.21375e-19)
(0.995635 0.0391346 -4.95565e-19)
(0.963341 0.022867 5.74777e-19)
(1.01218 0.0858301 -5.44647e-20)
(1.04096 -0.00706428 0)
(1.04563 -0.00690092 2.42561e-19)
(1.03624 -0.0132369 -2.42574e-19)
(1.06337 0.03879 -1.32774e-20)
(1.05663 0.0178786 1.1852e-19)
(1.06075 0.0495731 0)
(1.05604 0.0409215 -4.44115e-20)
(1.03966 0.032071 0)
(1.03485 0.0288866 0)
(1.02714 0.0123259 0)
(1.02507 0.0150665 0)
(1.04695 0.0263 9.25487e-20)
(1.0433 0.0178302 -2.10608e-19)
(1.05339 0.0224547 -9.28012e-20)
(1.05207 0.0244484 -1.08429e-19)
(1.06539 0.0581986 1.9242e-19)
(1.08032 0.0517795 0)
(1.08698 0.094876 0)
(-0.196713 2.02027 4.8026e-20)
(-0.145058 1.89808 9.11887e-22)
(-0.159724 1.92866 0)
(-0.110335 2.02143 -4.80594e-20)
(-0.0774707 1.94204 -7.0797e-22)
(-0.0942341 1.97699 6.26652e-21)
(-0.178485 2.4688 -3.53195e-19)
(-0.195565 2.30465 1.18069e-20)
(-0.249649 2.37202 -7.09122e-20)
(-0.113919 2.31876 1.43628e-19)
(-0.126087 2.33775 -1.63567e-19)
(-0.288934 1.75381 -3.11958e-21)
(-0.257743 1.85617 -3.1175e-20)
(0.370341 1.40274 -4.13141e-19)
(0.368535 1.35278 -3.95281e-19)
(0.637608 1.41293 -5.94526e-19)
(0.508156 1.47735 -3.18738e-19)
(0.555848 1.4514 0)
(0.589524 2.40778 1.2232e-19)
(0.656267 2.39485 2.21848e-19)
(0.414002 2.50501 7.98005e-20)
(0.408545 2.55068 -1.6278e-19)
(0.517233 2.50727 2.66835e-19)
(0.546648 2.44786 0)
(0.490556 2.49508 -3.5193e-19)
(0.246206 2.58132 5.77534e-19)
(0.354542 2.55588 -8.14462e-20)
(0.284506 2.63859 -8.81934e-19)
(0.925502 2.37943 2.21861e-19)
(0.824806 2.37343 0)
(1.01038 0.000156716 9.84646e-21)
(1.01479 -0.00568734 -8.02894e-21)
(1.01787 -0.00386261 -1.45283e-19)
(1.01487 -0.000692796 1.45499e-19)
(1.01214 0.00100034 0)
(0.622237 1.2763 0)
(0.633065 1.16157 0)
(0.732913 1.07328 0)
(0.627468 1.12261 0)
(1.18401 2.63425 5.72129e-20)
(1.0703 2.37119 0)
(0.844286 2.23046 -1.836e-21)
(0.823755 2.48017 0)
(0.918865 2.56664 2.62536e-20)
(0.955315 2.52041 -1.75241e-20)
(0.842822 0.146618 0)
(0.812841 0.140214 8.36385e-20)
(0.927519 0.124542 4.27677e-19)
(0.863916 0.116427 -1.71014e-19)
(0.846796 0.0649995 -5.15281e-19)
(1.04329 0.21735 -2.4102e-19)
(0.959639 0.272704 -1.57143e-20)
(0.904565 0.27285 3.89549e-19)
(0.976193 0.199424 2.87265e-19)
(0.938485 0.159605 -5.38201e-19)
(0.911878 0.169142 6.98012e-20)
(0.93955 0.233009 -1.35197e-19)
(0.915943 0.192699 0)
(0.974744 0.157297 2.57703e-19)
(1.02013 0.165189 0)
(1.01314 0.191465 0)
(1.07976 0.110308 8.12024e-20)
(1.04433 0.158115 -1.30703e-20)
(1.03757 0.220122 -4.55983e-20)
(1.07331 0.192383 0)
(1.02756 0.032638 2.20086e-19)
(1.04643 0.0477074 2.60886e-19)
(1.0418 0.0328523 -2.17399e-19)
(1.04521 0.0535091 -1.7593e-19)
(1.02369 0.0561551 -2.96342e-19)
(0.976027 0.126716 0)
(0.992724 0.0794838 0)
(0.969167 0.0426701 -2.07908e-19)
(0.931725 0.0588496 8.65213e-20)
(1.03244 0.086102 2.47296e-19)
(1.04939 0.111203 -2.4952e-19)
(1.05462 0.138385 2.28492e-19)
(1.02043 0.125607 0)
(1.05899 0.0989967 0)
(1.04705 0.0809473 -1.03834e-19)
(1.04237 0.0826321 -1.98151e-19)
(0.579266 1.08457 -9.66585e-20)
(0.618426 1.43731 1.98127e-19)
(1.15782 2.75754 1.04491e-19)
(1.2253 3.09553 -7.1477e-20)
(1.24864 2.73472 5.68265e-19)
(1.28119 2.71867 -3.4273e-19)
(1.2083 2.35551 -8.57076e-21)
(1.21145 2.99936 1.97164e-19)
(1.2295 2.96438 -2.19218e-19)
(1.21762 3.24924 -2.69744e-19)
(1.38 2.98112 3.73486e-19)
(1.37285 2.89853 0)
(0.530789 0.857394 -1.29714e-20)
(0.157597 1.27847 3.75279e-19)
(0.52671 0.502345 3.49019e-19)
(0.365392 0.270549 3.81817e-19)
(0.545226 0.404325 4.04848e-19)
(0.553671 0.486856 -6.27732e-19)
(0.555438 0.489184 5.15458e-19)
(0.512238 0.435808 -2.09826e-19)
(0.452354 0.371926 4.81712e-19)
(0.776229 0.251225 -1.86024e-19)
(0.733515 0.291944 0)
(0.728126 0.227435 1.07071e-20)
(0.720688 0.516663 1.8972e-19)
(0.687386 0.486542 -7.01223e-19)
(0.6148 0.478302 1.79956e-20)
(0.624931 0.466379 0)
(0.666074 0.72067 1.50012e-19)
(0.801927 0.752364 5.79453e-20)
(0.725045 0.831116 -7.55539e-20)
(0.843814 0.788942 -1.65311e-20)
(0.875308 0.83252 1.42324e-20)
(0.884074 0.83273 -1.45763e-20)
(0.817336 0.634548 -2.21577e-19)
(0.893059 0.688652 1.53738e-20)
(0.946824 0.700901 0)
(0.936877 0.678183 -1.39564e-20)
(0.986023 0.312342 6.12848e-20)
(1.10355 0.285822 1.82891e-21)
(1.02738 0.252038 9.84011e-20)
(0.968237 0.344515 -1.41578e-19)
(1.01543 0.406097 0)
(1.06585 0.395618 0)
(0.890707 0.35287 4.92549e-21)
(0.834448 0.283083 0)
(0.85272 0.276189 2.00615e-19)
(0.886774 0.279327 -5.86637e-21)
(0.907654 0.42283 7.64659e-19)
(0.86904 0.485479 1.93303e-19)
(0.870391 0.450767 -2.50137e-19)
(0.800424 0.438281 2.68393e-19)
(0.785417 0.438838 1.83193e-19)
(0.752414 0.421831 -1.79768e-19)
(1.02678 -0.00073643 2.32809e-19)
(1.01992 -0.000135229 0)
(1.01839 0.00089859 1.55299e-19)
(1.02215 -0.00156007 -3.49498e-19)
(1.02211 0.0040736 1.69526e-19)
(1.02047 0.0107088 -3.55915e-19)
(1.02138 0.0102559 0)
(1.02087 0.0107291 -7.52249e-20)
(1.01584 0.00751978 1.88452e-19)
(1.01669 0.0101752 -9.48487e-20)
(1.01772 0.00933376 7.00816e-20)
(0.073544 1.08214 0)
(0.179197 1.23818 0)
(0.0971459 1.16098 0)
(0.0792591 1.02463 0)
(0.130011 1.37836 -7.00018e-19)
(0.120959 1.3518 2.16661e-19)
(0.123919 1.48117 1.57697e-19)
(0.0970029 1.38676 -1.85873e-19)
(0.184691 1.51446 5.07263e-19)
(0.187145 1.48626 -3.9029e-19)
(0.170128 1.36308 -3.0066e-20)
(0.207787 1.35281 4.88775e-19)
(0.195804 1.27698 7.31935e-20)
(0.208151 1.27744 6.84814e-20)
(0.0916758 2.36588 1.90615e-19)
(0.0891244 2.42335 0)
(0.151298 2.06806 -5.00447e-20)
(0.0745371 1.71857 -1.18407e-19)
(0.232562 2.05499 3.03822e-20)
(0.21333 2.45637 0)
(0.268688 2.40812 -1.12006e-19)
(0.303705 2.40778 7.9809e-20)
(0.241904 2.01103 9.74741e-20)
(0.147494 2.1896 -4.72941e-21)
(0.138147 2.31626 0)
(0.122801 2.01124 5.52764e-19)
(-0.0318745 2.53763 6.35636e-19)
(0.0317141 2.36019 0)
(0.0293297 2.51437 -2.682e-20)
(0.0202359 2.35554 -2.52427e-19)
(-0.169763 1.28161 -8.11615e-20)
(-0.214114 1.27912 1.23722e-18)
(-0.25459 1.34979 -2.80922e-19)
(-0.234649 1.43632 -4.96443e-19)
(-0.0585934 1.43954 0)
(-0.284427 1.29843 0)
(-0.216453 1.34037 -1.53881e-19)
(-0.30722 1.37052 4.87075e-20)
(-0.284925 1.30669 0)
(-0.198692 1.19108 -1.43275e-19)
(-0.146512 1.23665 2.55295e-19)
(1.04121 0.00478757 0)
(1.04305 0.0018512 -2.26308e-20)
(1.04335 0.0143201 -1.67416e-19)
(1.05049 0.0104791 0)
(1.04983 0.00842661 0)
(1.03669 0.00604862 -6.44461e-21)
(1.0323 0.00793182 2.75884e-19)
(1.03262 0.012161 3.33222e-19)
(1.02691 0.0186912 0)
(1.02526 0.0198741 0)
(1.0383 0.0202065 1.68446e-19)
(1.03061 0.0245098 0)
(1.02803 0.0233495 0)
(-0.373811 2.07178 0)
(-0.308619 1.87934 -1.65902e-20)
(-0.325698 2.01479 -3.61627e-20)
(-0.310201 1.48924 0)
(-0.382037 1.81842 -7.64102e-20)
(-0.319634 1.70945 9.58537e-21)
(-0.307505 1.56841 0)
(0.387312 1.68748 0)
(0.367769 1.28293 6.50228e-19)
(0.303568 1.33722 0)
(0.41559 1.27609 -8.46139e-19)
(0.459696 1.44264 0)
(0.43874 1.39129 3.97202e-19)
(1.02767 2.70526 -4.06644e-21)
(0.950154 2.41464 -2.80268e-19)
(0.888929 2.1705 3.17107e-19)
(0.838263 2.36708 1.17629e-19)
(0.843102 2.51975 0)
(0.908669 2.51473 0)
(0.904086 2.37323 0)
(0.894528 2.34741 -4.42915e-19)
(0.689475 2.49482 -1.46316e-20)
(0.79958 2.48753 -1.30285e-20)
(0.808477 2.45985 9.98164e-21)
(0.68779 2.37479 0)
(0.789314 2.37447 0)
(0.75138 2.38316 -2.26178e-19)
(0.766537 2.50535 0)
(0.586893 1.09003 0)
(0.483518 0.94234 2.277e-21)
(0.535081 0.971395 -1.16946e-21)
(0.514142 1.06379 0)
(0.51497 1.02048 -7.68786e-22)
(0.747158 0.854539 1.40008e-20)
(0.760364 0.99802 0)
(0.733945 0.95388 -6.37976e-20)
(0.610485 1.02121 0)
(0.619449 0.936753 0)
(1.16248 2.77737 5.83913e-20)
(1.14053 2.84175 1.25462e-19)
(0.934846 2.36926 -2.8606e-19)
(0.901893 2.34366 3.64813e-20)
(1.12589 2.74855 0)
(1.077 2.71912 -4.36424e-20)
(1.0828 2.49514 -7.41436e-20)
(0.978668 2.23211 -2.97634e-20)
(0.492559 1.37066 0)
(0.502209 1.07288 8.51974e-20)
(0.541411 1.14999 0)
(0.857783 0.218853 0)
(0.819915 0.173829 0)
(0.777832 0.163105 0)
(0.849752 0.2243 -3.15514e-19)
(0.796189 0.222927 1.94569e-19)
(0.939681 0.0505647 -1.77704e-19)
(0.952987 0.0994078 0)
(0.925454 0.10468 7.98767e-20)
(0.887576 0.0810772 3.27419e-19)
(0.875618 0.0463317 -2.00906e-19)
(1.16768 3.37462 -9.84443e-19)
(1.21375 3.29404 0)
(1.16732 3.40118 -1.93544e-18)
(0.653881 3.56126 1.66216e-18)
(0.881757 3.12637 3.78544e-19)
(0.510686 0.885068 2.295e-19)
(0.43593 0.876357 0)
(0.360336 0.535604 -8.48104e-20)
(0.45799 0.691473 3.86153e-19)
(0.534183 0.501587 -1.11951e-19)
(0.516319 0.530966 1.31077e-19)
(0.659491 0.530622 2.67345e-19)
(0.686814 0.549633 0)
(0.646361 0.615834 0)
(0.597069 0.551165 0)
(0.945041 0.585128 -5.34175e-20)
(0.873091 0.5306 -1.86833e-19)
(0.898247 0.563901 8.64824e-20)
(0.925817 0.501789 -1.37324e-19)
(1.03003 0.463086 0)
(1.04102 0.554551 -5.04754e-21)
(0.824679 0.390631 -4.04945e-19)
(0.829274 0.373647 -4.67148e-19)
(0.780688 0.390162 3.17669e-19)
(0.774071 0.35628 -3.59673e-19)
(0.828817 0.306158 -2.66092e-19)
(0.782374 0.310051 3.27304e-19)
(1.02595 0.0055543 -1.79812e-19)
(1.0258 0.00564423 3.68693e-19)
(1.03058 -0.000806448 2.20403e-19)
(1.03272 0.000701227 -2.68035e-19)
(1.03373 0.00458785 0)
(1.03031 0.00552497 -4.31177e-19)
(0.109682 1.70221 -6.6698e-20)
(0.120958 1.63852 0)
(0.0979441 1.72078 -5.19182e-19)
(0.0906197 1.69587 4.75943e-19)
(0.117177 1.52802 -2.89401e-19)
(0.176285 1.54314 0)
(-0.465761 2.07434 0)
(-0.427946 1.71446 6.85668e-20)
(-0.450681 1.67523 -6.2074e-20)
(-0.385726 1.83932 -2.59844e-20)
(-0.37914 2.0973 8.87214e-20)
(-0.415414 2.11997 -6.37654e-20)
(0.486565 1.38244 4.24279e-19)
(0.47735 1.38707 -4.55788e-19)
(0.431361 1.27495 4.21636e-19)
(0.421185 1.29661 -2.5882e-20)
(0.612053 1.27632 0)
(0.532343 1.37336 5.40037e-19)
(0.55285 1.3935 -5.25146e-19)
(0.440682 1.25949 -4.07557e-19)
(0.489032 1.21538 0)
(0.544826 1.17814 0)
(0.656868 2.45347 2.14824e-20)
(0.668877 2.47476 5.31318e-19)
(0.716025 2.49132 -3.65562e-19)
(0.626433 2.47393 -1.19088e-19)
(0.562889 2.57024 9.85564e-20)
(0.514634 2.54097 -2.98853e-19)
(0.962704 2.37577 -1.70835e-19)
(1.00698 2.39729 0)
(0.903484 2.14716 -2.43622e-19)
(1.04554 2.69967 0)
(1.04745 2.6869 0)
(0.626641 2.29265 2.41936e-19)
(1.04744 3.17536 4.84492e-19)
(0.918452 3.04433 -4.30365e-19)
(0.294196 0.960907 0)
(0.348497 0.83337 -1.56091e-19)
(0.498961 0.787011 -7.1255e-20)
(0.407227 2.04048 0)
(0.47334 2.79158 -2.635e-19)
(0.434077 2.55632 0)
(0.679544 0.663112 -3.11053e-19)
(0.749287 0.658616 3.94357e-19)
(0.773928 0.610949 -3.85077e-19)
(0.672044 0.636216 -4.62381e-20)
(0.719834 0.590055 -1.8827e-19)
(1.00757 2.78232 -3.68321e-19)
(1.0406 2.8375 2.90203e-19)
(0.652057 2.18873 5.09525e-20)
(0.60863 1.73914 -6.72738e-20)
(0.703757 1.92746 1.13353e-19)
(0.991786 2.46528 -6.82469e-20)
(0.994445 2.46339 -1.65698e-19)
(0.67391 1.87583 -5.35514e-21)
(0.458857 1.35338 -7.98935e-20)
)
;

boundaryField
{
    wall-4
    {
        type            noSlip;
    }
    velocity-inlet-5
    {
        type            fixedValue;
        value           uniform (1 0 0);
    }
    velocity-inlet-6
    {
        type            fixedValue;
        value           uniform (0 3 0);
    }
    pressure-outlet-7
    {
        type            zeroGradient;
    }
    wall-8
    {
        type            noSlip;
    }
    frontAndBackPlanes
    {
        type            empty;
    }
}


// ************************************************************************* //
