/*--------------------------------*- C++ -*----------------------------------*\
| =========                 |                                                 |
| \\      /  F ield         | OpenFOAM: The Open Source CFD Toolbox           |
|  \\    /   O peration     | Version:  4.0                                   |
|   \\  /    A nd           | Web:      www.OpenFOAM.org                      |
|    \\/     M anipulation  |                                                 |
\*---------------------------------------------------------------------------*/
FoamFile
{
    version     2.0;
    format      ascii;
    class       volScalarField;
    location    "10";
    object      p;
}
// * * * * * * * * * * * * * * * * * * * * * * * * * * * * * * * * * * * * * //

dimensions      [0 2 -2 0 0 0 0];

internalField   nonuniform List<scalar> 
918
(
0.212453
0.910398
0.00799872
0.211487
0.000832654
0.878249
-0.832888
0.395282
0.191456
-0.13346
0.0191844
0.182286
0.738005
0.505977
-1.46126
0.0168741
0.348621
-0.638739
0.189841
0.00596243
0.497751
0.198244
0.201837
0.192784
0.249201
0.513644
0.617764
0.00228461
-0.00155611
0.000902392
0.00175935
-0.00184697
0.0061941
0.761756
0.812165
0.834536
0.160609
0.0885269
-0.661442
-0.768236
-0.701358
-0.85411
0.380467
0.38908
-0.508558
0.394102
0.409534
0.181453
0.191001
0.19197
0.193176
0.191952
0.193831
0.306458
-0.140276
-0.190587
-0.0833914
-0.0580314
0.0877628
0.0190695
0.0142469
0.0234906
0.0253138
0.121997
0.178776
0.178466
0.186539
0.195677
0.849078
0.82025
0.845726
0.762173
0.777342
0.715974
0.687811
0.525765
0.546221
0.491964
0.483448
-1.87399
-2.81577
-0.879166
-0.618842
0.00145202
0.0233305
0.030782
0.32986
0.338787
0.341889
0.359278
0.799786
-0.555037
-0.7575
0.190325
0.188264
0.19825
0.198702
0.195965
0.193968
0.0145642
0.0182221
-0.0059593
0.0044183
0.00257701
0.460314
0.454887
0.194107
0.19015
0.202673
0.225768
0.211804
-0.0331023
0.258295
0.290961
0.291739
0.483856
0.486111
0.491557
0.592182
0.554816
0.65588
0.679822
0.00781002
0.0021672
0.0141161
0.00963129
0.0129104
0.159361
0.154783
0.174639
0.163875
0.16588
0.00960445
-0.135182
0.194369
0.183285
-0.587631
-0.677772
-0.651861
-0.722014
-0.829849
0.241576
0.369958
0.377758
-0.511237
-0.427691
-0.590266
-0.351894
-0.437402
0.166736
0.177571
0.17187
0.187758
0.183914
0.184547
0.195333
0.192272
0.193838
0.340572
0.407991
0.265967
0.238681
-0.378594
-0.231986
-0.405501
-0.0313376
-0.0243319
0.0999366
0.116059
0.0827245
0.0756259
-0.00874661
0.007437
-0.00238856
0.0264753
0.028005
0.115208
0.105911
0.131277
0.137818
0.172921
0.172115
0.176631
0.173543
0.637687
0.660493
0.668682
0.641992
-3.80901
-6.81667
-0.295094
-0.147354
0.00136518
0.00302788
0.00144727
0.00266323
0.00278576
0.00177105
0.0469588
0.042269
0.0354843
0.0388104
0.316017
0.324091
0.785478
0.8517
0.713368
0.699623
0.177238
0.180527
0.185792
0.179579
0.024457
0.0199875
0.0239457
0.407524
0.431126
0.428203
-0.0703201
-0.161271
0.0148027
0.0391568
0.305617
0.290541
0.311272
0.357827
0.395333
0.686148
0.703276
0.704645
0.712313
0.758105
0.771362
0.736049
0.142928
0.151216
0.147897
0.175258
0.175091
0.173924
0.170301
0.171664
0.170271
-0.311823
-0.675779
-0.071352
0.0628465
0.21941
0.145771
0.344269
0.502515
0.350994
0.362198
0.370614
-0.2873
-0.367281
0.208346
0.183219
0.0638774
0.0938807
0.0775949
0.608292
0.570835
0.620271
0.593733
0.554663
0.579807
-0.727126
-1.95341
-1.22383
0.229728
0.02694
0.121397
0.0664794
0.0515582
0.056284
0.793797
0.825508
0.450739
0.589711
0.569031
0.441807
0.475258
0.52733
0.448826
0.48473
0.522376
0.506069
0.0156461
-0.134057
-0.0719828
0.557314
0.783051
-0.176208
-0.21869
-0.295597
0.12428
0.157673
0.142391
0.795281
0.74549
0.813207
0.189672
0.190581
0.00850922
0.0140345
0.194141
0.194834
0.00642482
0.0107282
0.0996631
-1.16773
-0.199268
0.180554
0.173469
0.189759
-0.105576
0.309657
0.0246665
0.0970682
0.0619614
0.178929
0.131551
0.09638
0.00716338
0.0226594
0.0140256
-0.415133
0.186714
0.185569
0.188948
0.190947
0.19086
0.00834866
0.00889029
0.00465211
0.0123922
0.00840545
0.00703508
0.158665
0.171261
-0.543026
0.189488
0.191271
0.191134
0.183493
0.190663
0.187943
0.0188757
0.012266
0.0156282
-0.0752522
0.0333853
0.368789
0.5099
0.300077
0.0677947
-0.191189
0.261999
0.333171
0.225455
0.403217
0.352096
0.378773
-0.139832
-0.289904
-0.12246
-0.181779
0.179538
0.17926
0.174617
0.167102
0.184712
0.183172
0.187648
0.184249
0.186973
0.188557
-0.0548077
-0.067788
-0.122228
-0.200682
0.323034
0.421805
0.248335
0.250888
0.148587
0.0262951
0.0267282
0.0255283
0.0137703
0.0709058
0.0678898
0.0794444
0.0790501
0.052702
0.0502598
0.0673624
0.0639576
0.0696495
0.174887
0.174515
0.178797
0.18517
0.137739
0.142647
0.112697
0.130058
0.119324
0.062117
0.0957294
0.0739667
0.00756202
0.00983256
0.00587404
0.0273199
0.0335369
0.0149266
0.0120383
0.0141867
0.0106165
0.0110622
0.017691
0.0222274
-0.38882
-0.517994
0.794276
0.645978
0.352731
0.176156
0.183112
0.179509
0.185006
0.187048
0.187726
0.185455
0.182865
0.171424
0.172613
0.169346
0.169807
-0.520878
-0.569866
-0.434808
-0.471313
-0.127778
0.287435
0.044559
-0.0214753
-0.021823
0.191387
0.531235
0.35449
0.45016
0.4852
-0.714116
-0.333683
-0.643852
-0.0823654
-0.270133
0.369271
0.427634
0.455008
0.395731
0.339857
-0.533062
0.180269
-0.383284
-0.344048
-0.155763
-0.25339
0.399965
0.336514
0.345804
0.365729
0.385616
0.340395
0.316641
0.315813
0.358588
0.362642
0.153895
-0.0408136
-0.0995375
-0.125996
0.322288
0.19603
0.254362
0.172701
0.174169
0.177767
0.17452
0.16182
0.168971
0.165219
0.168383
0.170861
0.180793
0.180097
0.175371
0.177668
-0.0389773
-0.0261445
-0.0682987
-0.280355
-0.222811
-0.304846
-0.12445
0.123506
0.107513
0.399333
0.367794
0.0799344
-0.156061
-0.101797
-0.166881
0.151737
0.093479
0.115093
0.163104
0.182652
0.151458
0.21466
0.198952
0.0451881
0.0598241
0.0357934
0.0358904
0.103923
0.126723
0.123977
0.0518125
0.0500807
0.0279647
0.0269383
0.0800472
0.0467377
0.0642226
0.0706628
0.024174
0.027994
0.0316236
0.0451326
0.0445818
0.0471613
0.17041
0.170951
0.171227
0.181095
0.191595
0.204621
0.177925
0.156077
0.148448
0.151924
0.128931
0.137047
0.13479
0.14238
0.160682
0.167954
0.166688
0.16784
0.154358
0.157173
0.145135
0.14734
0.132135
0.114051
0.101457
0.018294
0.0139957
0.0155469
0.014688
0.011878
0.0120237
0.0459328
0.0360702
0.0422279
0.0378663
0.0418952
0.0185078
0.0204214
-0.291888
-0.162885
-0.516157
-0.483928
-0.568287
0.699321
0.763561
0.638944
0.499611
0.53595
0.664415
0.753346
0.450288
0.533944
0.531951
0.113423
0.736877
0.182051
0.181185
0.17712
0.176517
0.17928
-0.425921
-0.325914
-0.268958
-0.184109
0.00569825
0.147765
-0.435571
-0.341084
-0.210827
-0.28006
0.282013
0.299009
0.245621
0.271246
0.275752
0.111134
0.172815
0.229147
0.190088
0.228238
0.24925
0.211819
0.238096
0.191961
0.152601
0.153764
0.101708
0.113892
0.0939278
0.0765984
0.169264
0.149685
0.158759
0.153498
0.172845
0.199898
0.193254
0.212634
0.231459
0.160092
0.127643
0.132582
0.159616
0.124874
0.136252
0.14904
-0.0844322
-0.0393148
-0.060643
-0.381631
-0.276808
-0.371275
-0.390662
-0.273928
0.0505646
-0.71895
-0.785534
-1.33437
0.145024
0.601739
0.35831
0.293795
0.383637
0.353957
0.351214
0.401891
0.408767
0.312947
0.331749
0.33477
0.285393
0.303738
0.337122
0.337152
0.186605
0.0436228
0.0186376
0.00206662
-0.120632
-0.0876275
0.116688
0.0338596
-0.0321674
-0.0182853
0.14212
0.0444275
0.109874
0.130424
0.0489887
0.0286483
0.214954
0.278149
0.267343
0.249053
0.167765
0.174732
0.208541
0.240539
0.262834
0.296903
0.168996
0.176179
0.175798
0.174552
0.17225
0.17341
0.172574
0.174351
0.176285
0.178741
0.177078
0.0146239
0.0258262
-0.00564115
-0.000478656
0.0156822
-0.00720821
0.0423536
0.00366735
0.0416056
0.0412675
0.00837477
-0.0110034
0.0045289
0.0242737
0.172198
0.202511
0.185093
0.137364
0.241262
0.395073
0.448031
0.386265
0.208993
0.231418
0.279458
0.0927154
0.0968857
0.0867678
0.107032
0.104008
0.0314178
0.0334943
0.0362975
0.0427073
0.0421995
0.0318482
0.0243384
0.0260925
0.0290649
0.0271775
0.0258607
0.158663
0.153725
0.153816
0.148401
0.14675
0.159442
0.161976
0.163653
0.16728
0.168398
0.162624
0.165768
0.167787
0.0317219
0.0258282
0.0279594
0.0259634
0.0264478
0.0217103
0.0209147
-0.306296
-0.11925
-0.0249765
-0.323292
-0.421585
-0.327111
-0.104674
-0.0720953
-0.261604
0.624177
0.314645
0.128233
0.267893
0.442474
-0.0338274
0.278258
0.0458794
0.704763
0.600865
0.76925
0.359664
-0.0762166
0.0997022
0.125963
-0.0528738
0.0463888
-0.0410474
-0.132413
-0.100533
-0.0775929
0.0156678
-0.0661057
-0.012525
-0.355134
-0.501053
-0.0466213
-0.102254
0.141756
0.165075
-0.492513
-0.303146
-0.379005
0.274599
0.293997
0.311716
0.281816
0.306889
0.236078
0.227905
0.24593
0.255791
0.246062
-1.08557
-0.783861
-1.73874
-1.07135
-0.610796
0.186693
0.161955
0.359304
0.272277
0.349778
0.335471
0.312783
0.280853
0.277887
0.312152
0.0395351
0.136283
0.116031
0.123611
0.0210995
-0.0282006
0.252487
0.243869
0.282786
0.303469
0.267053
0.304176
0.168353
0.167543
0.165531
0.163943
0.161346
0.162738
0.105966
0.0795454
0.125267
0.10769
0.0667345
0.0575994
0.0399407
0.0336364
0.0311639
0.0309269
0.0351551
0.0407542
-0.618134
-0.549552
-0.497922
-0.509724
-0.466725
-0.487515
-0.457759
-0.672885
-0.677656
-0.524806
0.272674
0.636938
0.455694
0.660959
0.401522
0.484397
-0.233053
0.0303936
-0.0706703
-0.0499781
-0.0839961
-0.0244585
-0.565375
-0.457741
0.326071
0.39464
0.239352
0.0892243
-0.231823
-0.128222
0.206645
0.135891
0.179081
0.246226
0.242162
-0.317357
-0.284386
0.106021
0.314821
0.0338893
-0.12269
-0.0565183
0.0865469
0.0608648
)
;

boundaryField
{
    wall-4
    {
        type            zeroGradient;
    }
    velocity-inlet-5
    {
        type            zeroGradient;
    }
    velocity-inlet-6
    {
        type            zeroGradient;
    }
    pressure-outlet-7
    {
        type            fixedValue;
        value           uniform 0;
    }
    wall-8
    {
        type            zeroGradient;
    }
    frontAndBackPlanes
    {
        type            empty;
    }
}


// ************************************************************************* //
