/*--------------------------------*- C++ -*----------------------------------*\
| =========                 |                                                 |
| \\      /  F ield         | OpenFOAM: The Open Source CFD Toolbox           |
|  \\    /   O peration     | Version:  4.0                                   |
|   \\  /    A nd           | Web:      www.OpenFOAM.org                      |
|    \\/     M anipulation  |                                                 |
\*---------------------------------------------------------------------------*/
FoamFile
{
    version     2.0;
    format      ascii;
    class       surfaceScalarField;
    location    "10";
    object      phi;
}
// * * * * * * * * * * * * * * * * * * * * * * * * * * * * * * * * * * * * * //

dimensions      [0 3 -1 0 0 0 0];

internalField   nonuniform List<scalar> 
1300
(
3.75095
5.62643
-6.303
3.75095
-6.19126
5.62643
-4.47478
4.47478
-1.53411
1.53411
1.8764
1.87455
-5.0499
5.0499
-5.08653
5.08653
-2.90218
2.90218
-5.24625
5.24625
-5.06856
5.06856
4.67064
-4.67064
-5.0088
5.0088
-1.96745
1.96745
-5.14141
5.14141
3.17043
-3.17043
-5.2381
5.2381
-0.601617
0.601617
-0.553496
4.30445
3.19746
3.19746
-2.63427
2.63427
-4.84276
4.84276
6.21777
-6.21777
9.53754
-9.53754
-3.23454
-3.37758
1.36443
-8.10626
-4.82682
-4.82682
-8.4401
8.4401
-2.81367
2.81276
3.0084
-3.0084
-1.81979
1.81979
-4.43783
-0.0369583
-4.43783
4.51854
-0.0437581
4.51854
-1.67609
0.141982
-1.67609
4.1301
-4.1301
1.33921
0.194897
1.33921
3.02601
-3.02601
-1.87723
3.75363
1.87372
-1.87142
6.17587
-1.87954
3.75409
-4.88758
4.88758
-5.14095
0.0910496
-5.14095
5.01269
0.0372182
5.01269
-5.29408
5.29408
-5.02905
-0.0574812
-5.02905
5.13915
-0.0526148
5.13915
3.10475
-3.10475
-2.92587
0.0236941
-2.92587
2.85248
0.0496958
2.85248
0.353686
5.27274
-5.98012
8.79287
-5.27274
0.0264966
5.20742
0.0388232
5.20742
-5.10605
0.0374865
-5.10605
5.00967
0.0588856
5.00967
4.73012
-0.0594797
4.73012
-4.80523
0.13459
-4.80523
-3.35194
-3.27677
-5.08696
0.0781601
-5.08696
-2.0013
0.0338453
-2.0013
1.93301
0.0344397
1.93301
-3.76764
3.76764
-4.93394
-0.207476
-4.93394
3.10903
0.0613944
3.10903
1.86912
1.88183
5.62008
-5.62008
2.44965
-5.23185
-0.00625583
-5.23185
-5.25865
-4.27889
5.25865
-0.0205421
-0.917521
0.315904
-0.917521
3.16343
0.0340232
3.16343
2.75772
0.0947585
-2.75772
0.123452
3.4729
-3.4729
2.01718
0.617088
2.01718
-5.57464
5.57464
4.94676
0.062917
-4.94676
0.104
6.15729
0.060478
6.15729
-6.2002
-0.0175755
-6.2002
3.36203
-6.73961
-3.35787
4.92866
0.0801414
-4.92866
0.101837
3.02899
-0.0205991
3.02899
-2.95258
2.95258
-2.98891
-0.0194884
-2.98891
-2.20745
0.387657
-2.20745
1.46598
0.353816
1.46598
-4.36331
-0.0745148
-4.36331
-4.64562
-0.288319
4.64562
-0.127075
0.858768
-0.858768
-1.80637
0.130277
-1.80637
-4.26452
-0.0987925
4.26452
-0.134423
-4.01313
-0.116965
-4.01313
-2.98854
-0.000371686
2.98854
0.0374763
3.10256
0.0608763
-3.10256
0.0765462
-1.87043
3.75227
-1.88052
3.75424
-4.68961
-0.197972
-4.68961
5.00041
-0.112834
5.00041
5.26744
-0.126026
-5.26744
0.126484
4.98
0.0326878
4.98
-5.2727
-0.0213846
-5.2727
5.2733
0.0207854
5.2733
4.97888
0.00111533
-4.97888
-0.0501687
5.18539
-0.0462441
5.18539
3.1485
-0.0437508
3.1485
-3.07389
-0.0308554
-3.07389
2.96297
-2.96297
2.94346
0.0195086
-2.94346
0.0175918
-11.1329
11.1153
-0.0347527
-11.0981
5.17267
5.17267
4.10876
0.62136
4.10876
-5.01861
0.213375
-5.01861
3.35248
-6.71036
3.28742
-6.63935
3.31474
-11.421
3.3619
-6.63866
5.21904
-5.21904
5.16366
0.0553804
-5.16366
0.0766956
-2.01153
0.0102369
-2.01153
-3.32104
-0.446602
-3.32104
4.08214
-0.314491
4.08214
-2.98074
2.98074
-3.0412
0.0604624
3.0412
0.0678292
5.21755
-0.032159
-5.21755
-0.0142979
1.12805
0.211167
-1.12805
0.210524
3.67105
-0.198149
3.67105
-3.28795
-0.184954
-3.28795
-2.04149
0.0299579
2.04149
-0.0243097
-5.81992
0.245276
-5.81992
-11.1916
0.0935006
-11.1528
-6.10669
-6.10669
2.33341
11.1263
-3.05073
-0.0231646
3.05073
-0.0217348
2.94738
0.0333642
-2.94738
-0.00520296
-2.96532
0.00234711
2.96532
-0.0127357
-2.58469
0.377243
-2.5847
-0.6551
0.6551
-1.0702
0.415095
1.0702
0.395784
1.35655
-0.497782
1.35655
1.89512
0.0378893
-1.89512
0.0887541
-3.93158
-0.0815497
-3.93158
5.06973
-0.0693198
5.06973
-3.19926
-0.0886867
3.19926
-0.0507591
-0.0329164
11.1482
-5.13976
0.0337091
5.13976
-11.2087
11.2424
-3.20805
0.623353
3.20805
0.900715
5.30411
0.270539
-5.30411
0.285496
5.25187
0.0214295
-5.25187
0.0328303
-2.87279
-0.448248
-2.87279
-4.39203
-0.29758
4.39203
-0.309891
-11.4737
-0.202399
11.6761
-11.4148
6.02232
0.134974
-6.02232
11.3774
-0.561039
-0.297729
0.561039
0.0940615
1.90371
-0.547158
1.90371
3.83547
-0.164426
-3.83547
-0.0961057
-5.1714
-0.101298
5.1714
-0.101668
-2.40539
-0.467398
2.40539
-0.501687
-4.27143
4.30545
1.90444
-3.36596
-3.37365
-7.64486
1.84931
1.90295
4.29896
-7.03375
-4.38725
-6.93191
7.27864
-6.99314
-9.30124
9.24176
7.39353
-7.5105
-5.78398
5.85181
6.39894
-6.36147
1.88054
1.87309
10.3148
-10.2237
-10.7513
10.5534
10.161
-10.2185
10.7621
-10.7835
-12.398
12.4194
-5.72889
5.75259
-6.6002
6.56934
-6.77163
6.72088
-3.33914
-3.30021
9.03953
-8.96137
11.7684
-11.7746
-9.80627
9.59879
3.37371
0.931748
3.43458
-1.88594
3.76648
-1.86815
3.77259
3.34833
-6.68746
3.36203
-6.73568
6.05898
5.70938
-6.03844
-1.60641
-5.8729
5.8523
-5.85325
5.84051
8.54481
-8.58177
-1.88641
3.7595
-1.86783
3.77078
-3.42955
-2.35443
3.36815
0.930808
5.56932
3.47021
-5.64946
-1.28245
-7.60908
7.44465
-7.88012
7.69517
-0.468759
5.83447
-5.36571
4.374
-1.54596
7.38044
5.73267
5.94605
5.86785
-5.59731
1.12529
-6.49101
-6.38701
-2.66894
2.79922
2.65699
-2.46209
5.84121
1.55232
5.70679
-5.43974
-2.07076
-5.52129
3.81195
2.03986
3.87241
4.02674
2.37221
4.02637
3.03876
-3.02965
-0.00911522
-3.07701
6.11578
0.729854
-5.43145
-4.50064
6.77456
3.54023
6.81178
-6.78904
-3.4347
-6.66256
-6.52224
-4.22909
-6.81982
6.77955
3.77381
6.66671
-8.00123
7.89956
6.79098
3.37002
6.73837
-6.70585
-3.51262
-6.75602
10.4871
-2.69991
-7.78723
-6.95456
-5.44342
6.93378
3.82836
7.54607
4.87334
7.5789
3.56624
6.92089
-7.39461
1.95119
-3.83169
-1.8972
-3.8141
3.7207
2.03189
3.7704
-4.12935
-2.47085
-4.15251
-4.20115
-2.57049
4.2449
2.32445
-4.30474
-3.57538
4.39343
2.32745
2.9949
-7.38215
3.64376
-6.94398
-6.30441
-2.65695
-6.22772
4.08909
2.6273
-6.71639
-2.59837
10.9405
-5.23108
9.33405
-7.32675
-4.44788
-7.34105
-6.32179
-3.48448
-6.61011
-6.17949
5.73124
-6.16983
5.85534
12.6501
-4.98756
-7.66253
-3.94952
-2.41194
3.87298
-0.438394
-3.72676
3.71765
0.039716
3.8123
4.74405
4.30566
-3.85862
-1.99463
-3.86382
3.85212
1.98839
3.85446
6.08181
2.463
6.03806
-6.1389
-2.44287
-6.21341
8.95101
-8.56335
2.94591
-2.91595
5.14349
2.55168
-4.94534
-2.66373
5.9599
-3.01134
-2.94856
-12.2627
10.6798
1.58291
-4.88227
-0.508269
0.0933474
-5.51961
-3.78164
5.38502
0.561033
11.2408
7.45919
-5.51448
5.75976
6.16165
6.22456
-0.162446
5.69875
-5.07539
5.20388
-2.19715
-3.00672
5.18396
-5.28275
-1.02946
-5.25123
4.22177
0.424041
1.88283
-1.56692
-2.15454
-0.514404
-2.06578
1.61663
1.04036
1.8278
0.998206
1.80101
-2.88922
0.519094
2.37012
-1.89101
-1.943
-3.62065
-0.840738
4.46139
5.45019
1.99446
-5.35408
-0.167201
2.80227
-2.76783
-0.893757
-2.72689
1.89568
-2.78943
-3.35818
-1.85365
5.21182
-3.35584
-0.507978
3.32248
0.54993
-3.74474
-2.12815
3.76423
0.262135
-3.0913
6.16287
-3.07156
-5.08593
2.52623
3.58955
4.56609
-4.86435
2.47714
2.38721
-1.2748
5.86461
0.94717
5.8973
-8.93776
5.50306
7.13013
2.46866
-7.0041
0.341543
-8.59622
9.8865
-8.22147
-1.66503
5.41777
4.46873
5.79992
6.85017
-4.31314
10.1131
-0.222691
-7.99878
8.81891
-6.35024
4.52219
-10.8724
-11.3724
3.37358
-7.13204
8.64457
-1.51253
-2.39955
-5.60168
9.53159
-0.995714
-8.53588
5.671
-5.40548
-5.31697
10.7225
-8.10539
8.8296
-2.64548
-6.18412
-6.70386
-4.07966
6.80516
1.0944
-9.92439
11.8756
-3.0035
5.9237
0.814667
5.87745
3.92987
-6.05778
2.12791
4.17553
-6.82101
2.62281
-8.68059
-4.8632
9.51107
-4.64787
-7.52015
-6.73186
-0.788293
2.03886
9.83672
-6.91221
5.3253
1.5869
3.32039
0.534075
-3.3399
-0.474201
0.339898
4.42943
-4.76933
4.11029
4.20505
3.32737
1.10207
3.81808
2.03421
-3.79635
-0.356161
-4.01805
1.44756
-1.6936
-3.45955
4.90712
-3.90774
0.448187
-2.63311
-3.44431
6.07743
-4.53032
3.06011
3.10275
5.04851
-4.79518
1.35087
-2.37386
-2.42132
2.55687
-4.25047
1.83227
3.07485
4.15971
0.58433
4.81956
4.69151
-7.44686
0.502887
8.16172
-6.87927
1.68468
5.89422
-7.00998
0.278119
-5.9496
1.11268
-6.34376
-5.60371
3.93796
-7.42244
-6.93447
5.54966
0.488393
-5.42259
-1.18752
-4.00956
-2.16993
-4.47696
-2.03477
-4.13507
-6.34791
-1.14958
-5.19833
4.58167
-4.55784
-2.26198
4.86773
0.987615
-7.39049
7.09276
-6.28743
5.74027
0.0519211
3.66572
4.35758
1.94563
-2.39092
4.33656
-3.81691
6.27991
-8.21963
4.40273
4.15789
-6.60076
-4.06174
4.95509
3.99592
5.30891
9.67479
-11.0963
1.42147
-12.1523
11.9334
0.218909
-17.9471
5.79479
-8.27233
2.68251
0.263392
2.69275
0.648845
2.32136
-2.9702
-2.2671
-2.29141
-2.18293
-3.24173
5.42466
1.10059
-3.20506
2.10447
-3.41479
4.51538
0.0383653
-3.24342
5.10198
-2.78062
5.36538
-3.37643
1.98895
3.17928
5.42635
-2.24707
4.1614
-1.60972
1.74407
-3.99114
-1.49766
-2.94547
4.97735
-3.13196
3.58015
-0.208022
3.78817
-3.9612
0.949854
-0.633829
3.57122
3.69467
4.13181
-3.02975
2.80788
-4.4176
-1.18325
-3.83327
-0.758421
0.691605
-4.64561
3.954
7.09186
-6.40026
-5.15207
9.45745
-4.30538
7.63944
-5.36409
-2.27534
-4.18935
-4.374
3.81211
1.88664
9.52608
0.218492
-5.58259
-4.8569
-3.95619
3.16951
2.03437
-2.15267
3.73558
2.05932
-0.176496
0.635983
1.19181
1.89263
-1.25664
0.164586
1.72804
-1.40234
2.10988
0.69238
-2.14777
0.0819894
-1.38208
3.27775
0.988045
-2.0284
0.771757
1.09621
-3.29336
4.79791
-2.48575
-2.31216
5.89412
1.05897
-3.54472
4.19226
-3.76822
2.33388
-3.17462
-1.21084
-4.97906
-3.42674
-2.40157
4.50604
-3.02309
5.01755
1.14786
-4.85035
5.99821
-3.37903
1.52538
-3.08407
3.77645
-1.13635
-1.94772
2.60774
2.60408
-2.79672
0.0698262
-0.188974
2.19096
-2.37993
-0.598479
-2.48949
-4.5899
4.85204
-2.11886
4.59599
2.2177
-1.90933
6.50532
1.8558
-3.76513
-3.23013
-3.73811
-1.37792
3.18818
-0.967188
-5.78883
-7.15131
5.78772
0.109581
-8.98747
10.2928
-1.30528
-5.44724
-0.0558183
5.47359
-7.55222
0.731206
-4.9294
5.36335
6.31052
6.4201
-8.62482
0.0889435
-4.85101
1.46714
-6.31815
5.93587
-3.46132
6.8349
-7.63936
5.37737
-6.65174
5.16987
-1.14828
5.62659
-3.49867
2.16064
-6.2403
-5.1459
6.98375
-3.61373
7.79841
-4.10523
11.9036
-7.10873
6.93738
4.96626
-1.39853
-5.94252
-6.84016
5.44163
0.0972195
5.97467
4.87676
-2.84254
4.52059
2.20073
-4.57459
-2.04974
-6.41785
1.84326
-3.3151
-1.86352
3.70678
3.18499
3.71906
1.28546
-3.24486
6.66039
-7.44868
-2.01252
-3.59119
6.75208
-1.31045
4.03956
-7.63075
-2.3042
7.98176
-3.76659
-4.21517
-2.9942
-3.94028
3.84676
-7.78703
3.57568
-4.7632
2.09484
-10.3672
-5.29565
-5.20159
-1.79584
-4.49159
-7.89818
6.10234
-2.10339
4.98937
-9.44572
5.67913
-2.48769
8.59003
-3.82431
-0.65265
4.326
1.41427
10.0043
0.74493
-4.80667
-1.87797
4.21729
-2.33932
1.29154
-3.90068
0.316614
2.37675
3.51738
-6.59852
-0.0022457
-4.80892
-4.01518
8.0111
5.44227
12.5341
1.43787
9.24656
-1.23546
10.6844
4.07345
4.46923
-4.44957
5.87104
-0.495567
3.90716
-0.825931
2.81488
1.86682
1.90067
0.86716
2.23747
1.4572
3.18733
0.217123
-2.07429
4.66311
-8.61929
-0.919478
-7.99793
1.24383
5.89033
-4.6465
3.2303
-1.19593
0.890976
0.347015
-1.79721
1.45019
-2.65971
-1.9737
-0.245661
-1.46823
2.23998
1.80953
-1.99432
-0.665387
0.251551
-3.67829
2.92307
-2.85324
-0.249161
5.74905
-2.5952
0.215272
-1.06982
-2.27422
-2.78862
2.70663
6.17778
0.327539
3.10622
5.17958
3.05142
0.20888
4.62235
-6.13488
-4.05824
-6.04594
-0.110066
5.36352
2.04678
7.78994
7.01304
5.70259
-1.92816
-9.37684
7.85477
-1.98373
8.07368
-3.85851
-3.92852
3.63086
2.64904
-4.11926
-0.643946
-4.57247
-6.5562
-1.90582
7.58495
-8.09848
7.44583
5.2759
-0.0775745
-4.60254
-0.599049
4.18744
0.281787
10.9662
-1.2506
-6.80253
8.05313
-4.63973
3.72025
0.932807
2.80277
2.383
1.18707
-5.61546
-10.262
-1.77591
-1.51745
-4.08808
0.373309
-2.18284
6.25643
-2.53617
3.98109
5.51696
6.40793
-2.06571
-4.33455
6.37109
-2.39
4.01793
)
;

boundaryField
{
    wall-4
    {
        type            calculated;
        value           uniform 0;
    }
    velocity-inlet-5
    {
        type            calculated;
        value           uniform -3.75095;
    }
    velocity-inlet-6
    {
        type            calculated;
        value           uniform -5.62643;
    }
    pressure-outlet-7
    {
        type            calculated;
        value           nonuniform List<scalar> 8(6.303 6.19126 6.61212 6.74182 6.6287 6.71991 6.6399 6.67664);
    }
    wall-8
    {
        type            calculated;
        value           uniform 0;
    }
    frontAndBackPlanes
    {
        type            empty;
        value           nonuniform 0();
    }
}


// ************************************************************************* //
