/*--------------------------------*- C++ -*----------------------------------*\
| =========                 |                                                 |
| \\      /  F ield         | OpenFOAM: The Open Source CFD Toolbox           |
|  \\    /   O peration     | Version:  4.0                                   |
|   \\  /    A nd           | Web:      www.OpenFOAM.org                      |
|    \\/     M anipulation  |                                                 |
\*---------------------------------------------------------------------------*/
FoamFile
{
    version     2.0;
    format      ascii;
    class       volVectorField;
    location    "10";
    object      U;
}
// * * * * * * * * * * * * * * * * * * * * * * * * * * * * * * * * * * * * * //

dimensions      [0 1 -1 0 0 0 0];

internalField   nonuniform List<vector> 
918
(
(0.98502 -0.00101735 0)
(0.00473763 2.96628 0)
(-0.00545184 1.67357 0)
(0.979426 0.00261307 0)
(-0.00126479 1.64876 2.13695e-22)
(-0.0070424 2.94891 -8.08474e-19)
(0.855685 1.16965 3.02225e-19)
(0.519696 0.263843 -3.46143e-21)
(0.999846 -0.000276573 0)
(0.0355797 1.49541 0)
(-0.00721892 1.50874 0)
(0.864934 -0.00259019 0)
(0.0117475 2.92998 0)
(0.00107564 2.79527 0)
(-0.0219519 3.16406 4.83933e-19)
(0.000118301 1.57118 -7.5279e-21)
(0.624098 0.123023 2.14577e-19)
(0.210767 1.63286 2.09951e-19)
(0.963259 0.0074289 0)
(0.00138846 1.56322 0)
(0.200364 0.303866 -1.98064e-19)
(1.00166 -0.00537427 0)
(1.00062 -0.0101853 0)
(0.975829 -0.00562765 0)
(0.780693 -0.0249226 0)
(0.0234732 2.62146 0)
(-0.0152112 2.91036 2.65301e-19)
(-0.00753136 1.69264 0)
(-0.00995917 1.76575 0)
(-0.00952038 1.69147 0)
(0.00538648 1.79683 0)
(0.00242237 1.66427 -1.65834e-22)
(-0.000298783 1.58298 0)
(-0.0204293 2.98749 -2.82646e-23)
(-0.0169958 3.00534 6.42122e-19)
(0.00199293 3.00009 0)
(0.901711 0.000749435 0)
(0.403826 0.969543 9.20498e-21)
(0.82454 1.21037 -4.2308e-19)
(0.967637 1.04747 3.97479e-19)
(0.669615 1.32403 -6.68717e-20)
(0.709666 1.27511 3.82564e-19)
(0.557678 0.323124 3.37521e-21)
(0.553025 0.233169 0)
(1.19462 0.595803 0)
(0.509284 0.340894 1.57875e-20)
(0.471123 0.253846 -1.63926e-20)
(0.906906 -0.00742025 0)
(1.00021 0.00017304 0)
(0.999999 0.00018937 0)
(1.00436 -0.00800011 0)
(1.00085 -0.000957466 0)
(1.00016 -0.000125278 0)
(0.0222682 1.56873 -2.37116e-19)
(0.0219955 1.61856 0)
(0.0653678 1.51422 0)
(0.00511373 1.62184 0)
(0.0241191 1.46615 0)
(-0.00507873 1.60642 0)
(-0.0117868 1.60885 0)
(-0.00612756 1.4921 0)
(-0.0131484 1.63439 0)
(-0.00904156 1.52341 0)
(0.929963 0.000878615 0)
(0.923216 0.00416421 0)
(0.87158 -0.00220053 0)
(0.918774 0.00952653 0)
(0.846091 0.005355 0)
(0.0153377 3.0007 2.8958e-19)
(0.0116104 3.00876 0)
(0.00642614 3.00253 0)
(0.0142119 2.99734 3.19241e-24)
(0.00837693 2.95841 -4.37773e-19)
(0.0154531 2.98166 0)
(0.0115122 2.90297 0)
(0.0253892 2.93005 5.5896e-25)
(0.00424317 2.82545 0)
(0.0327011 2.91528 0)
(-0.00661914 2.74385 0)
(0.294069 3.54506 0)
(-0.146998 3.61999 0)
(0.128803 3.25438 -4.46697e-19)
(-0.0108583 2.99726 0)
(0.0120661 1.76746 0)
(-0.00147999 1.66195 7.42412e-21)
(-0.00126424 1.57541 -1.20957e-20)
(0.681018 0.168764 -7.36895e-20)
(0.64712 0.0838037 -7.16499e-20)
(0.655477 0.199487 -2.21971e-19)
(0.611579 0.143561 -1.49537e-19)
(0.228829 1.27222 0)
(0.204376 1.64316 -2.2205e-19)
(0.37287 1.53342 3.74269e-19)
(0.986812 0.0118824 0)
(0.934329 0.0113702 0)
(1.00044 0.000385768 0)
(1.00311 0.00976115 0)
(1.00255 0.00893597 -3.96924e-19)
(0.99166 0.00956702 3.04245e-19)
(-0.00146028 1.65429 0)
(0.00206709 1.56616 0)
(-0.0104696 1.70807 0)
(-0.00695329 1.6687 0)
(0.00045514 1.56995 0)
(0.299201 0.316989 6.0274e-20)
(0.341289 0.271536 0)
(0.993406 -0.00816041 0)
(0.956984 -0.00594696 0)
(0.890005 0.0231728 0)
(0.85666 0.0202916 0)
(0.820978 -0.00581503 0)
(1.03706 0.000942423 0)
(0.814093 0.0298754 0)
(0.723137 -0.00632022 2.87058e-19)
(-0.0339287 2.86843 1.27457e-19)
(0.0446569 2.90699 0)
(0.0596067 2.88175 0)
(-0.00566081 2.69396 0)
(-0.0131513 2.98536 2.4244e-19)
(-0.0184399 2.8954 0)
(-0.0157915 2.98821 -7.71333e-19)
(-0.0131463 2.92526 2.67771e-19)
(-0.00521006 1.79949 0)
(-0.00151457 1.79202 0)
(0.00130982 1.6692 -1.77505e-22)
(0.000156971 1.66214 0)
(0.000300166 1.57311 0)
(0.953589 0.00375083 0)
(0.904981 0.00364765 0)
(0.879282 -0.00620983 0)
(0.949665 7.63024e-05 0)
(0.892865 -0.00102026 0)
(0.52794 1.15278 -1.56114e-20)
(0.578875 1.18966 0)
(0.343353 0.904342 5.20776e-21)
(0.283083 0.771288 0)
(0.938567 1.08576 -1.14187e-19)
(1.06 0.897701 2.39623e-19)
(0.34528 1.54265 0)
(0.504452 1.42945 0)
(0.546489 1.38706 0)
(0.0639132 0.0804201 -5.4619e-20)
(0.591806 0.295495 0)
(0.583584 0.214463 4.31599e-20)
(1.04084 0.949557 0)
(1.11885 0.803523 0)
(1.14256 0.756119 -2.11713e-19)
(1.1762 0.645549 0)
(1.22626 0.433674 2.65781e-20)
(0.94649 0.000313547 0)
(0.947807 -0.00467572 0)
(0.893792 -0.00143543 0)
(0.984878 -0.00952282 0)
(0.966913 -0.00957555 0)
(0.934115 -0.00669145 0)
(0.999976 0.00200106 0)
(1.00096 0.00190919 0)
(0.999709 0.000990272 0)
(0.0149884 1.63892 1.28466e-19)
(0.0501607 1.54334 0)
(-0.00138362 1.66514 2.09701e-19)
(0.00866769 1.56859 -1.79305e-19)
(0.0640052 1.65457 -1.7249e-19)
(0.0197354 1.64987 0)
(0.100501 1.60066 0)
(0.00552788 1.60928 0)
(0.0190029 1.45922 0)
(-0.00620328 1.68823 -5.39663e-22)
(0.00595393 1.61439 0)
(-0.00894595 1.68781 -2.75764e-20)
(-0.00410945 1.59976 5.22136e-20)
(-0.00167085 1.60364 0)
(-0.0118628 1.60168 0)
(0.00239723 1.46556 0)
(-0.0118256 1.64828 0)
(-0.00654675 1.53843 0)
(0.988572 0.0120048 0)
(0.946136 0.00155271 0)
(0.973965 0.00571204 0)
(0.922379 0.00124381 0)
(0.879982 -0.00129827 0)
(0.941512 0.00558345 0)
(0.93356 0.00389959 0)
(0.875172 0.00325072 0)
(0.00369041 3.06481 -2.39614e-21)
(0.0163809 3.05781 0)
(0.0153324 2.96859 0)
(0.00859156 2.87591 0)
(0.943652 3.96802 0)
(1.2852 3.22341 4.80312e-19)
(0.0694003 3.09058 0)
(-0.0227612 2.91776 0)
(0.00239798 1.78863 0)
(0.0101789 1.76765 0)
(0.00795805 1.76995 0)
(0.00360064 1.78421 1.63048e-21)
(0.0132333 1.77021 0)
(0.00864587 1.7792 0)
(-3.2302e-05 1.58377 1.63251e-21)
(-0.00222863 1.67962 1.55696e-20)
(-0.00248227 1.67118 1.23565e-20)
(-0.0021316 1.57792 0)
(0.704096 0.129212 1.08439e-19)
(0.66505 0.0581472 -1.04929e-19)
(0.209518 1.36665 0)
(0.304515 1.11474 -1.07887e-19)
(0.130475 1.45638 -3.14178e-19)
(0.152686 1.34795 3.13734e-19)
(0.883537 0.00635931 0)
(0.957275 0.0109256 0)
(0.970823 0.0164748 0)
(0.908629 0.012741 0)
(-0.00778287 1.65657 0)
(-0.00273021 1.65889 0)
(-0.000728324 1.55469 0)
(0.460674 0.353362 1.4366e-19)
(0.401041 0.339252 -1.78286e-19)
(0.405151 0.256003 0)
(1.15981 0.0850474 -2.10233e-21)
(1.14402 0.0385808 0)
(1.07011 0.0380286 0)
(0.985488 0.00664491 0)
(0.734616 0.105448 0)
(0.766975 0.0594731 -4.61568e-19)
(0.700431 0.0301625 1.76701e-19)
(0.0104547 2.98304 1.66022e-19)
(-0.0320761 2.8696 2.03471e-20)
(0.00213913 3.04984 -5.18843e-21)
(0.0211438 3.04331 1.93476e-19)
(-0.0152835 2.99652 8.9128e-21)
(-0.0130582 2.94967 -3.61374e-23)
(-0.017593 3.01133 -1.68313e-19)
(0.0143681 3.02227 1.21055e-19)
(0.00683517 3.03685 -1.92981e-19)
(0.970155 0.00419965 0)
(0.964685 0.00573582 0)
(0.911292 0.00396063 0)
(0.945224 0.00694106 0)
(0.93899 -0.00111714 0)
(0.8751 0.000937865 0)
(0.944801 -0.00138736 0)
(0.937415 -0.00307241 0)
(0.884518 -0.00711591 0)
(0.747262 1.40873 1.28436e-19)
(0.787673 1.49859 0)
(0.13375 0.155437 -5.83627e-21)
(0.0668354 0.501708 -6.92543e-21)
(0.172034 0.685904 -4.74817e-20)
(0.203163 0.514296 9.53856e-20)
(0.42899 0.64118 3.52384e-19)
(0.170724 0.287835 1.1895e-19)
(0.643906 0.231642 1.61691e-19)
(0.620212 0.268202 3.93541e-20)
(0.601652 0.182467 8.30872e-20)
(1.21991 0.482123 1.25455e-19)
(1.24153 0.280064 1.33971e-19)
(-0.00719533 1.66633 8.3238e-20)
(0.0094414 1.57444 0)
(1.02191 0.0215182 0)
(0.999894 0.0106614 0)
(0.960802 -0.00266839 0)
(0.0104908 3.07491 0)
(0.0206144 2.94369 3.28067e-19)
(0.0171663 2.95613 0)
(0.00627301 2.8507 -3.27007e-19)
(0.00525473 3.0909 7.54998e-20)
(0.00573697 3.08265 0)
(0.872664 1.79983 -9.86972e-20)
(1.24745 2.34973 2.15502e-19)
(0.851312 1.90439 -5.6811e-19)
(0.0218907 2.98749 -1.18539e-19)
(0.037518 3.01327 0)
(-0.0287562 2.8882 0)
(-0.00441649 1.67341 -3.26849e-21)
(-0.00175752 1.68006 -3.62134e-20)
(0.000775265 1.5912 -2.59297e-21)
(0.275734 1.23544 3.26429e-19)
(0.3262 0.968263 -2.19959e-19)
(0.0358123 1.59409 2.12001e-19)
(0.075331 1.53379 -2.58983e-19)
(0.0887325 1.44729 3.03755e-20)
(0.000948617 3.11838 -4.41342e-19)
(0.0163459 3.11763 4.96238e-19)
(-0.00872733 2.98121 2.08424e-19)
(-0.00281015 2.97846 -1.82613e-19)
(-0.0214122 2.88322 -2.12388e-19)
(0.00756238 3.09971 -5.53977e-19)
(0.00166042 3.10551 5.54563e-19)
(0.385451 0.491646 0)
(0.20754 0.441494 1.39894e-19)
(0.049035 -0.00263176 -4.28754e-20)
(0.455561 0.816112 3.61217e-19)
(0.271973 0.527245 -5.42006e-19)
(1.24018 0.177955 -2.43198e-20)
(1.23825 0.325818 0)
(1.22615 0.130501 5.34685e-20)
(0.00766087 1.68302 -6.88618e-22)
(0.00328881 1.66518 0)
(0.0128531 1.59059 0)
(0.299536 1.09425 -1.13152e-19)
(0.330468 0.972437 -2.48816e-19)
(0.324613 0.795146 4.55181e-19)
(1.00514 -0.00903449 0)
(1.00674 -0.00680189 7.29154e-20)
(-0.00268595 1.79721 0)
(-0.00754145 1.80241 0)
(1.00213 0.00356176 9.36716e-22)
(1.00169 0.0101277 1.48624e-19)
(0.00312275 1.78533 -2.15662e-21)
(0.00151422 1.78562 0)
(0.0397931 3.18505 3.60731e-20)
(0.3783 3.49358 0)
(1.11697 0.631533 2.96073e-20)
(1.01685 0.0186918 -8.49613e-22)
(1.0093 -0.0190925 0)
(1.00194 0.000170077 1.16136e-22)
(0.0259827 1.78874 0)
(0.0470457 1.78127 0)
(-0.0217832 1.78644 0)
(0.00589413 1.79223 3.77132e-20)
(-0.00150977 1.79644 1.82538e-20)
(0.999453 0.0110339 8.20527e-22)
(1.04417 0.0141654 0)
(1.07131 0.0207816 0)
(0.00569314 1.77434 0)
(-0.000271771 1.7882 0)
(-0.00266784 1.79647 0)
(0.057886 1.68254 -1.42435e-19)
(1.01248 -0.0115225 0)
(1.00731 -0.022372 0)
(1.00421 0.000570338 9.16172e-20)
(1.00455 -0.0044091 -1.0979e-19)
(1.00153 -0.0026376 0)
(-0.0021278 1.78157 0)
(0.00105515 1.79499 0)
(0.000377254 1.78934 0)
(-0.00295587 1.79765 0)
(-0.00341226 1.79369 0)
(-0.00405088 1.79665 0)
(1.02514 0.00935223 0)
(1.01995 -0.00352416 -4.39943e-22)
(0.764294 1.18154 2.10989e-19)
(1.00239 0.00146526 -9.19837e-20)
(1.00388 0.00577301 1.10446e-19)
(1.00129 0.00227322 0)
(1.01435 0.0156745 8.87025e-20)
(1.00883 0.0114371 -1.11276e-19)
(1.0049 0.0199451 0)
(0.00287618 1.7889 0)
(0.00320181 1.78627 6.50221e-21)
(0.0044872 1.78661 -4.91674e-21)
(1.17492 0.246917 -3.70014e-20)
(1.10771 0.0787551 0)
(0.0685524 3.07903 -2.12922e-19)
(0.0714716 2.84778 -1.7558e-20)
(0.153722 3.20792 3.14034e-19)
(0.146674 3.2368 5.95759e-21)
(0.139228 3.25521 0)
(0.0250263 3.1389 4.60802e-20)
(0.0836757 3.16685 2.05915e-19)
(0.0774448 3.19371 -9.04492e-20)
(0.0323569 3.12653 0)
(0.700207 0.341134 0)
(0.610159 0.403795 0)
(1.07 0.659021 -1.11324e-19)
(1.09101 0.797696 1.70631e-19)
(1.12213 0.530705 0)
(1.18846 0.487866 0)
(1.0173 0.0178004 -1.68055e-19)
(1.01452 0.0210556 2.10138e-19)
(1.00832 -0.0122083 0)
(1.00864 -7.28529e-05 0)
(1.00621 0.00131314 0)
(1.01324 0.00432355 0)
(1.00446 0.00156387 0)
(1.01662 0.00842895 0)
(1.0072 0.00683374 0)
(1.00605 0.00259803 0)
(0.0166166 1.78598 0)
(0.0135173 1.79259 0)
(0.0298694 1.79216 0)
(0.0422671 1.76867 0)
(0.0459193 1.78619 0)
(0.0754742 1.78866 -1.4063e-19)
(0.020173 1.79768 0)
(0.0117533 1.78601 6.93536e-20)
(0.0204949 1.79243 -7.03641e-20)
(-0.0209055 1.7892 0)
(-0.0145161 1.79091 0)
(-0.0215041 1.78607 0)
(-0.0148764 1.78447 0)
(-0.00260491 1.79359 -2.273e-20)
(-0.00604203 1.79672 2.68145e-20)
(-0.00536608 1.79789 3.34699e-20)
(-0.00738021 1.79613 0)
(-0.00213248 1.79889 -4.19501e-20)
(-0.00262808 1.79662 -2.46141e-20)
(-0.00196724 1.79436 1.89518e-20)
(-0.00518984 1.7942 -3.41602e-20)
(-0.00545572 1.79614 -4.05311e-20)
(1.00809 0.0167885 1.62629e-19)
(1.00791 0.00518182 -2.03174e-19)
(0.999457 0.0201336 -1.67266e-19)
(0.986538 0.0176611 2.16525e-19)
(1.03707 0.0171111 0)
(1.03943 0.00894617 0)
(1.06033 0.0339118 0)
(1.0442 0.0177488 0)
(1.05949 0.0106974 0)
(1.09563 0.0707311 0)
(1.07387 0.0389911 0)
(1.08983 0.026192 0)
(0.00596693 1.77498 -6.56177e-22)
(0.00317282 1.76788 0)
(0.00587697 1.76981 0)
(-0.00556616 1.79114 7.339e-21)
(-0.0060858 1.78951 -3.48256e-22)
(-0.00881721 1.77464 6.35855e-21)
(-0.00299807 1.78385 -6.4092e-21)
(-0.00582799 1.79406 0)
(-0.00378097 1.79499 0)
(-0.00297375 1.79382 0)
(-0.00494659 1.79586 0)
(-0.00460184 1.79646 0)
(0.109471 1.58457 2.67716e-19)
(0.232582 1.4852 1.1909e-19)
(0.439605 1.683 -8.11646e-20)
(0.197452 1.71368 2.12836e-19)
(0.0596891 2.10978 5.9036e-20)
(1.01233 -0.0246239 0)
(1.01303 -0.0228055 0)
(1.0054 -0.0316205 0)
(1.00935 -0.00474615 0)
(1.00619 -0.00408681 0)
(1.00483 -0.00543597 0)
(1.01005 -0.0091601 0)
(1.01117 -0.0161644 0)
(1.02225 -0.00123687 1.59401e-19)
(1.02 -0.0020836 -2.0227e-19)
(1.0211 0.000153947 -1.57724e-19)
(1.01674 0.00310406 1.96036e-19)
(0.747668 1.19685 0)
(0.632634 1.22493 2.54287e-19)
(0.831294 1.14076 1.57544e-19)
(0.890161 1.07931 -2.09258e-19)
(1.15217 2.56924 -1.68908e-19)
(0.826883 0.125517 1.08298e-19)
(1.10676 0.0897253 0)
(1.15266 0.172525 3.36657e-20)
(1.1501 0.151698 1.52119e-21)
(0.961373 0.133173 0)
(0.190407 2.98439 -9.57913e-23)
(0.137219 2.88284 -2.7983e-19)
(0.0652631 2.33744 1.97616e-19)
(0.13148 0.18893 -7.43871e-20)
(0.326534 3.4339 -1.9167e-19)
(0.193983 3.33722 0)
(0.224416 3.37404 2.49445e-19)
(0.258176 3.07152 -1.82763e-19)
(0.366266 3.22342 0)
(0.00792233 3.12012 1.10667e-20)
(0.0179215 3.12919 -1.46868e-19)
(0.0168399 3.12443 2.154e-19)
(0.0404283 3.14055 0)
(0.0396938 3.15265 0)
(1.17012 2.60993 0)
(0.521217 0.837561 -8.19535e-20)
(1.02937 0.937178 -8.67505e-20)
(0.943264 0.996503 0)
(0.839159 0.893716 2.65142e-20)
(1.03021 0.842623 1.18728e-20)
(0.389131 0.487587 -2.08211e-19)
(0.727343 0.342618 -9.54678e-21)
(0.736577 0.294992 8.44399e-20)
(0.607975 0.43916 6.71948e-21)
(0.574536 0.419828 -2.77206e-19)
(0.69672 0.369318 0)
(0.685968 0.42304 1.36961e-19)
(0.696055 0.418217 0)
(0.646265 0.415647 0)
(0.66163 0.358215 0)
(0.727202 0.606005 4.61598e-20)
(1.14899 0.25528 1.97245e-20)
(1.16176 0.3829 0)
(1.19474 0.347703 0)
(0.788687 0.218785 1.26801e-19)
(0.775906 0.541163 -7.00989e-20)
(0.685696 0.505838 1.1139e-19)
(0.872121 0.405678 -1.02958e-19)
(1.01985 0.00101754 1.08715e-19)
(1.01731 0.0152289 -1.11205e-19)
(1.01673 0.0104247 0)
(1.02092 0.0134991 0)
(1.01181 0.00943109 -1.00223e-19)
(1.01341 0.0108216 9.93307e-20)
(1.02351 0.00371846 0)
(1.02537 -0.00109389 0)
(1.01667 0.00833741 0)
(1.02008 0.0143361 0)
(1.03093 0.00192582 0)
(1.02671 0.00213933 0)
(0.00739907 1.79467 0)
(0.0105848 1.7873 0)
(0.0171096 1.80215 1.35324e-20)
(0.0384999 1.70517 6.37131e-20)
(0.0259089 1.77801 1.30677e-19)
(0.0359431 1.74733 -2.14874e-19)
(0.00709843 1.80025 0)
(0.0179065 1.81696 -4.43739e-20)
(0.0243375 1.81363 0)
(0.0926282 2.06064 -8.45833e-20)
(0.163588 1.89859 2.24194e-19)
(0.00217049 1.83631 3.92221e-20)
(-0.0365026 1.74786 2.77707e-20)
(-0.0122681 1.78083 -2.22448e-20)
(-0.0873545 1.75027 3.82574e-20)
(0.00955581 1.87183 0)
(-0.00788071 1.90259 -1.11983e-20)
(0.0072152 1.80083 -1.93632e-20)
(0.00234668 1.79079 0)
(0.00373012 1.78059 7.91747e-20)
(0.00392449 1.78702 0)
(0.000749153 1.78989 -7.6844e-20)
(0.00126734 1.78843 0)
(-0.0142096 1.78874 -1.66908e-20)
(7.06765e-06 1.79639 0)
(-0.00580578 1.79776 0)
(-0.0168263 1.78791 1.88553e-20)
(0.0128631 1.79263 -4.38712e-22)
(0.0231049 1.79413 8.27049e-20)
(0.0213208 1.79392 5.63782e-22)
(-0.00932878 1.78343 1.41724e-20)
(-0.00919079 1.78495 8.97584e-21)
(-0.0150632 1.79383 0)
(-0.0125776 1.79566 0)
(0.0124837 1.79927 4.49535e-20)
(0.0116281 1.79833 2.98309e-20)
(0.00682785 1.79531 -4.3427e-20)
(0.0153494 1.80261 0)
(-0.00790325 1.78034 -2.5314e-20)
(-0.00680396 1.78885 1.11045e-20)
(-0.00989611 1.78767 -3.5463e-21)
(-0.00655779 1.78296 -1.73173e-20)
(-0.00584233 1.79136 -6.07575e-21)
(-0.00410387 1.79414 2.8537e-20)
(1.01617 0.00616992 -1.05513e-19)
(1.01338 0.00766209 1.08154e-19)
(1.01067 0.00505349 0)
(0.990281 0.0484069 1.52412e-19)
(0.985712 0.0342807 -1.80271e-19)
(0.961621 0.029797 2.07511e-19)
(0.997009 0.0874655 -2.00937e-20)
(1.02517 0.00811466 0)
(1.03007 0.00989582 9.00064e-20)
(1.03146 0.00562676 -8.93627e-20)
(1.03036 0.0375746 -4.88574e-21)
(1.03103 0.0256817 4.35696e-20)
(1.0149 0.0378112 0)
(1.00688 0.0345127 -1.60357e-20)
(1.00739 0.0257286 0)
(1.01186 0.0189815 0)
(1.022 0.00532365 0)
(1.01866 0.00369904 0)
(1.01074 0.0255929 3.361e-20)
(1.01616 0.0165826 -7.70974e-20)
(1.0138 0.034577 -3.44433e-20)
(1.00932 0.0309423 -3.94536e-20)
(1.01042 0.0360877 7.1102e-20)
(1.05023 0.0372884 0)
(1.04146 0.0837138 0)
(-0.00663648 1.77843 -8.96216e-21)
(-0.00424112 1.77031 -8.54622e-22)
(-0.00481158 1.7726 0)
(0.000139645 1.78229 8.87024e-21)
(0.000343125 1.77606 1.44215e-21)
(-0.000519206 1.78081 -1.49196e-21)
(-0.00369083 1.79621 2.17598e-20)
(-0.00738934 1.79216 -1.30205e-21)
(-0.00635977 1.79108 6.2632e-21)
(-0.00545195 1.79308 -1.12463e-20)
(-0.00438831 1.79357 1.34218e-20)
(-0.0088912 1.7854 1.12114e-22)
(-0.0110114 1.77514 1.07518e-20)
(-0.0606336 1.5585 -1.2867e-19)
(-0.114401 1.76911 -7.7162e-20)
(0.594568 1.21906 -2.45601e-19)
(0.321194 1.37041 -1.14235e-19)
(0.475556 1.3458 0)
(0.46016 1.71258 8.68375e-20)
(0.524837 1.54084 1.15796e-19)
(0.271106 1.6995 2.97727e-20)
(0.268349 1.7674 -2.56382e-19)
(0.338934 1.87124 2.24006e-19)
(0.408513 1.67805 0)
(0.345188 1.67959 -1.87623e-19)
(0.100386 1.76738 3.68335e-19)
(0.16493 1.74129 -2.37785e-20)
(0.112082 1.75478 -4.96468e-19)
(0.879405 2.32439 6.40174e-21)
(0.707498 1.91051 0)
(1.01678 -0.00954856 3.6221e-21)
(1.01543 -0.0202599 -2.99959e-21)
(1.01935 -0.0179829 -5.26012e-20)
(1.03189 -0.0135712 5.3573e-20)
(1.0279 -0.0100903 0)
(0.705351 1.02344 0)
(0.788622 0.975033 0)
(0.74733 1.06899 0)
(0.734142 1.03086 0)
(1.17457 2.60174 1.20327e-20)
(1.03058 2.32506 0)
(1.00665 2.51586 -2.96176e-21)
(0.574423 2.72072 0)
(0.878089 2.78164 1.28633e-19)
(0.939305 2.7425 -8.2972e-20)
(0.834283 0.158989 0)
(0.807617 0.149387 3.13742e-20)
(0.888362 0.120093 1.59706e-19)
(0.847245 0.116284 -6.23813e-20)
(0.843443 0.0719193 -1.95122e-19)
(1.00577 0.20076 -9.5226e-20)
(0.917712 0.265112 -6.23314e-21)
(0.892873 0.248717 1.45691e-19)
(0.952534 0.170413 1.06829e-19)
(0.913529 0.149704 -2.00712e-19)
(0.898366 0.151876 2.6009e-20)
(0.933641 0.203302 -5.04019e-20)
(0.907632 0.171872 0)
(0.96598 0.153565 9.60411e-20)
(0.994148 0.159636 0)
(0.986268 0.1747 0)
(1.03886 0.103418 3.03955e-20)
(1.01707 0.155542 -5.4953e-21)
(1.00488 0.209899 -1.52691e-20)
(1.05114 0.192068 0)
(1.00267 0.0258166 8.00884e-20)
(1.00508 0.0353673 9.43646e-20)
(1.00806 0.0309704 -7.85324e-20)
(1.00763 0.0426496 -6.36644e-20)
(0.99761 0.0523369 -1.07885e-19)
(0.958617 0.125734 0)
(0.980864 0.0907144 0)
(0.960937 0.0415574 -7.48232e-20)
(0.918693 0.0509642 3.18901e-20)
(1.00092 0.0816432 9.13657e-20)
(1.00737 0.101068 -9.28341e-20)
(1.02153 0.135454 8.31965e-20)
(1.00336 0.129466 0)
(1.01543 0.0842932 0)
(1.00551 0.064784 -3.87676e-20)
(1.00877 0.0734373 -7.31163e-20)
(0.915771 1.21873 -5.13647e-20)
(0.874118 1.4191 5.78652e-20)
(1.16857 2.69291 7.44232e-21)
(1.2124 3.05318 -3.09512e-20)
(1.23984 2.67999 2.03242e-19)
(1.26796 2.67247 -1.42266e-19)
(1.15127 2.31858 1.13562e-20)
(1.20662 2.93782 5.35585e-20)
(1.23546 2.90676 -4.04132e-20)
(1.21725 3.21102 -1.34576e-19)
(1.34564 2.92813 1.51284e-19)
(1.27375 2.86094 0)
(0.509756 0.845031 -5.71322e-21)
(0.161716 1.31639 1.43422e-19)
(0.540271 0.545083 1.4003e-19)
(0.349915 0.333362 1.52758e-19)
(0.566608 0.455952 1.55553e-19)
(0.550388 0.499652 -2.41828e-19)
(0.541737 0.524146 1.97286e-19)
(0.516247 0.481301 -8.25457e-20)
(0.484184 0.410832 1.91352e-19)
(0.798857 0.249199 -7.02874e-20)
(0.760565 0.291973 0)
(0.767883 0.251147 4.51888e-21)
(0.665073 0.508016 7.05145e-20)
(0.66347 0.477101 -2.60681e-19)
(0.587283 0.502943 6.53722e-21)
(0.613402 0.468633 0)
(0.605274 0.746943 5.94323e-20)
(0.807439 0.739295 9.16075e-21)
(0.74921 0.820157 -1.49918e-20)
(0.84364 0.766609 -3.12863e-21)
(0.894393 0.80643 7.165e-21)
(0.902624 0.809761 -7.35656e-21)
(0.770465 0.622907 -7.8559e-20)
(0.865976 0.715476 2.91438e-21)
(0.940148 0.70703 0)
(0.912701 0.666167 -4.20611e-21)
(0.944864 0.28099 2.26739e-20)
(1.04979 0.266198 1.18435e-21)
(0.988292 0.234216 3.85992e-20)
(0.927798 0.331966 -5.22072e-20)
(0.990797 0.398932 0)
(1.03314 0.392604 0)
(0.847248 0.335268 1.51946e-21)
(0.848735 0.27254 0)
(0.855144 0.251932 7.43374e-20)
(0.869047 0.255278 -2.52247e-21)
(0.866257 0.404771 2.81437e-19)
(0.832124 0.47269 7.04929e-20)
(0.826362 0.429598 -9.52192e-20)
(0.757824 0.433677 1.02345e-19)
(0.750381 0.429847 6.93214e-20)
(0.730705 0.413784 -6.75059e-20)
(1.0226 0.0134241 8.60714e-20)
(1.0309 0.00377238 0)
(1.03382 0.000194787 5.77942e-20)
(1.021 0.00892031 -1.29691e-19)
(1.03133 0.00391874 6.25742e-20)
(1.03061 0.00303708 -1.33448e-19)
(1.0271 -0.00136526 0)
(1.02569 -0.000207036 -2.75477e-20)
(1.03041 0.00325055 6.89823e-20)
(1.02262 0.00851579 -3.53232e-20)
(1.02419 0.00537057 2.57033e-20)
(-0.00465386 1.78335 0)
(-0.00616762 1.79388 0)
(0.0128676 1.78776 0)
(0.00221544 1.78388 0)
(0.00584674 1.79972 6.45521e-21)
(0.0064442 1.7956 -2.22958e-21)
(0.0115994 1.81254 -1.31585e-20)
(0.00301115 1.80681 -1.38103e-20)
(0.0154976 1.80378 -2.55994e-20)
(0.0117007 1.80327 1.88063e-20)
(0.012089 1.80466 -6.75539e-21)
(0.00961892 1.80984 1.40133e-21)
(0.00914472 1.80271 2.4439e-22)
(0.00978094 1.80032 -2.43687e-21)
(0.00863821 1.78052 -8.59012e-20)
(0.0197039 1.78344 0)
(0.0250599 1.77517 4.8067e-20)
(0.0231286 1.80055 3.24048e-20)
(0.0554203 1.83098 -3.45032e-20)
(0.114407 1.79923 0)
(0.122823 1.79153 -2.60881e-19)
(0.150004 1.85179 1.80654e-19)
(0.0584871 1.80836 -9.29685e-20)
(0.0418556 1.78145 5.15281e-20)
(0.0329923 1.77999 0)
(0.0108806 1.79424 -5.78817e-20)
(0.00670757 1.78966 -7.30769e-20)
(0.00579371 1.79239 0)
(0.0178611 1.79725 -2.12669e-21)
(0.0116062 1.80028 2.92693e-20)
(-0.0185037 1.78713 2.32656e-21)
(-0.0180292 1.78745 -4.10645e-20)
(-0.0157339 1.78124 1.03239e-20)
(-0.0160904 1.77692 1.58165e-20)
(-0.0144466 1.78826 0)
(-0.0122391 1.7821 0)
(-0.00807896 1.79583 1.12488e-20)
(-0.0066967 1.7842 -3.5894e-21)
(-0.011515 1.7834 0)
(-0.011227 1.79656 8.82219e-21)
(-0.00868351 1.79669 -1.69825e-20)
(1.01826 0.0135485 0)
(1.02111 0.0122604 -8.30321e-21)
(1.01677 0.0152684 -6.13566e-20)
(1.01836 0.0209001 0)
(1.01829 0.0216093 0)
(1.02039 0.00682753 -2.0239e-21)
(1.02094 0.00686493 1.01573e-19)
(1.01861 0.00763323 1.24378e-19)
(1.01828 0.00707949 0)
(1.0169 0.00749406 0)
(1.01676 0.0126797 6.21907e-20)
(1.01592 0.0101056 0)
(1.01766 0.0101664 0)
(-0.0121078 1.77972 0)
(-0.0115319 1.77243 1.03324e-21)
(-0.0116358 1.77256 5.57598e-21)
(-0.00801254 1.78322 0)
(-0.0108141 1.77754 7.64923e-21)
(-0.00937855 1.78381 -3.50464e-21)
(-0.0072088 1.78607 0)
(0.0196441 2.41428 0)
(-0.209661 1.83773 1.62414e-19)
(-0.122258 2.1195 0)
(-0.094645 1.60305 -2.90245e-19)
(0.149799 1.1968 0)
(-0.000701274 1.46995 1.48319e-19)
(1.03524 2.86114 1.13735e-21)
(0.890054 2.49152 -1.00184e-20)
(0.863056 2.29472 -1.90935e-19)
(0.716126 2.04044 8.59051e-20)
(0.678846 2.62836 0)
(0.800829 2.67776 0)
(0.841349 2.277 0)
(0.845624 2.03594 -2.51665e-19)
(0.252876 2.65507 -7.04226e-20)
(0.491748 2.68806 -1.78724e-20)
(0.521324 2.68401 1.41739e-20)
(0.525194 1.7175 0)
(0.642273 1.85934 0)
(0.63418 1.64137 -1.30413e-19)
(0.437528 2.45236 0)
(0.717936 1.05742 0)
(0.472055 0.960604 -3.77736e-20)
(0.575418 0.934306 -3.00561e-21)
(0.734425 1.07941 0)
(0.528726 1.171 5.97638e-20)
(0.79263 0.877385 1.12231e-20)
(0.80897 0.985361 0)
(0.776757 0.906053 -3.34016e-20)
(0.669888 1.06833 0)
(0.636382 0.959764 0)
(1.18729 2.75154 9.29069e-21)
(1.17796 2.79316 3.73881e-20)
(1.1572 2.30009 -8.96669e-20)
(1.12735 2.40703 4.08189e-20)
(1.15977 2.76215 0)
(1.10334 2.77274 -5.05126e-20)
(1.05444 2.49157 -4.44334e-20)
(0.885751 2.22245 -1.10971e-20)
(0.796701 1.74133 0)
(0.843202 1.09153 4.47748e-20)
(0.776571 1.02487 0)
(0.85704 0.193702 0)
(0.824109 0.170775 0)
(0.772016 0.183557 0)
(0.86043 0.210662 -1.17194e-19)
(0.809434 0.222468 7.38578e-20)
(0.919238 0.0493701 -6.52604e-20)
(0.919104 0.0908019 0)
(0.890492 0.101615 3.01713e-20)
(0.879085 0.0640893 1.23153e-19)
(0.884374 0.050568 -7.56207e-20)
(1.14475 3.35431 -4.10899e-19)
(1.18966 3.2889 0)
(1.11526 3.37742 -8.06526e-19)
(0.614258 3.54474 7.04503e-19)
(0.811659 3.13617 1.53514e-19)
(0.491005 0.880267 9.54607e-20)
(0.363586 0.95683 0)
(0.313117 0.563098 -2.97272e-20)
(0.381343 0.690331 1.34018e-19)
(0.516386 0.536068 -4.20434e-20)
(0.49752 0.559334 4.63998e-20)
(0.597365 0.517964 1.0122e-19)
(0.62034 0.538162 0)
(0.599401 0.605815 0)
(0.55511 0.545629 0)
(0.916463 0.581928 -2.12589e-20)
(0.828083 0.514646 -6.75601e-20)
(0.850191 0.562586 3.17787e-20)
(0.883639 0.489522 -5.0879e-20)
(1.01185 0.459886 0)
(0.999057 0.539732 -1.64199e-21)
(0.78583 0.38635 -1.53197e-19)
(0.792376 0.373395 -1.72544e-19)
(0.765279 0.386322 1.19681e-19)
(0.764415 0.362345 -1.34875e-19)
(0.826241 0.306394 -9.85983e-20)
(0.791435 0.313641 1.2136e-19)
(1.02844 0.00786309 -6.57486e-20)
(1.02718 0.00782469 1.36105e-19)
(1.02255 0.0145876 8.02454e-20)
(1.02267 0.0143133 -9.60403e-20)
(1.01604 0.0137235 0)
(1.02069 0.00875751 -1.60446e-19)
(0.0148741 1.80171 1.14844e-20)
(0.0134856 1.80105 0)
(0.012474 1.79432 9.81604e-20)
(0.0164512 1.80272 -8.97915e-20)
(0.0100386 1.80502 2.45401e-20)
(0.0111492 1.8017 0)
(-0.00888393 1.77906 0)
(-0.0109291 1.77865 -4.34039e-21)
(-0.0115252 1.77674 3.82661e-21)
(-0.011223 1.77698 1.03765e-21)
(-0.0105434 1.77865 -7.71783e-21)
(-0.00893466 1.77934 4.91768e-21)
(0.56823 1.89319 4.69563e-19)
(0.281997 1.99597 -5.02512e-19)
(0.00929236 1.59113 3.27609e-19)
(0.00410566 2.16265 -2.10996e-20)
(0.625324 1.0046 0)
(0.315157 1.12774 2.4864e-19)
(0.393991 1.02436 -2.42182e-19)
(0.161209 1.0899 -3.19246e-19)
(0.485094 1.17658 0)
(0.677999 0.975786 0)
(0.163179 2.57942 1.06308e-19)
(0.359084 2.19863 5.19623e-19)
(0.410879 2.36539 -3.43833e-19)
(0.377392 2.1101 -7.25042e-20)
(0.186217 2.3235 1.02254e-19)
(0.311504 2.00611 -2.69871e-19)
(0.902654 2.50728 1.20778e-19)
(0.939477 2.45655 0)
(0.818479 2.24779 4.13676e-21)
(1.04674 2.79975 0)
(1.07524 2.80656 0)
(0.562512 2.30343 5.50879e-20)
(0.996225 3.1699 1.78308e-19)
(0.876306 3.04906 -1.27145e-19)
(0.312772 0.988764 0)
(0.295096 0.804132 -5.78332e-20)
(0.407784 0.784713 -3.807e-20)
(0.327288 2.0745 0)
(0.484056 2.83339 -1.08854e-19)
(0.401476 2.6322 0)
(0.638626 0.64667 -1.20623e-19)
(0.694001 0.670121 1.43587e-19)
(0.726738 0.609689 -1.3766e-19)
(0.60557 0.623071 -1.75621e-20)
(0.658336 0.57627 -7.10186e-20)
(0.985951 2.81582 -1.34578e-19)
(1.03106 2.82696 1.18816e-19)
(0.566137 2.14881 1.06088e-19)
(0.574928 1.7881 -8.39215e-20)
(0.753804 1.89915 -2.8066e-20)
(0.973403 2.50176 -4.43248e-20)
(0.983271 2.40064 -4.26813e-20)
(0.54906 1.91118 -1.36614e-21)
(0.502811 1.42524 9.51381e-21)
)
;

boundaryField
{
    wall-4
    {
        type            noSlip;
    }
    velocity-inlet-5
    {
        type            fixedValue;
        value           uniform (1 0 0);
    }
    velocity-inlet-6
    {
        type            fixedValue;
        value           uniform (0 3 0);
    }
    pressure-outlet-7
    {
        type            zeroGradient;
    }
    wall-8
    {
        type            noSlip;
    }
    frontAndBackPlanes
    {
        type            empty;
    }
}


// ************************************************************************* //
