/*--------------------------------*- C++ -*----------------------------------*\
| =========                 |                                                 |
| \\      /  F ield         | OpenFOAM: The Open Source CFD Toolbox           |
|  \\    /   O peration     | Version:  4.0                                   |
|   \\  /    A nd           | Web:      www.OpenFOAM.org                      |
|    \\/     M anipulation  |                                                 |
\*---------------------------------------------------------------------------*/
FoamFile
{
    version     2.0;
    format      ascii;
    class       volScalarField;
    location    "25";
    object      p;
}
// * * * * * * * * * * * * * * * * * * * * * * * * * * * * * * * * * * * * * //

dimensions      [0 2 -2 0 0 0 0];

internalField   nonuniform List<scalar> 
918
(
0.227492
0.900012
0.0122963
0.22681
-0.00851517
0.867114
-0.833278
0.403511
0.207583
-0.414564
-0.428306
0.199039
0.727515
0.494334
-1.45912
-0.134553
0.357695
-0.709944
0.206563
-0.0306849
0.458985
0.214216
0.217258
0.207852
0.269027
0.480151
0.608077
0.0136329
0.00563305
0.00203597
-0.00683179
-0.0410233
-0.0500073
0.750752
0.801846
0.824511
0.176454
0.00254443
-0.687337
-0.761276
-0.749813
-0.87954
0.395218
0.399762
-0.494363
0.404162
0.416723
0.194982
0.206916
0.207845
0.208976
0.207887
0.209295
0.100458
-0.420707
-0.457595
-0.398782
-0.395879
-0.216296
-0.448585
-0.437658
-0.412509
-0.371459
0.130366
0.196164
0.193035
0.203614
0.211855
0.83956
0.811464
0.837606
0.751281
0.767808
0.705476
0.678023
0.514552
0.53588
0.479619
0.469346
-1.90221
-2.87536
-0.857667
-0.600273
-0.00165155
-0.169444
-0.19782
0.346925
0.350229
0.356423
0.370468
0.753523
-0.703743
-0.848042
0.206634
0.205437
0.21396
0.21465
0.210658
0.209758
-0.0521653
-0.094085
-0.0133078
-0.0176249
-0.0219226
0.443806
0.438547
0.208413
0.205457
0.219494
0.242154
0.231499
-0.0281311
0.277069
0.296118
0.293909
0.466849
0.462167
0.470585
0.58152
0.544655
0.64549
0.668687
0.00300022
0.00409508
-0.118921
-0.0633891
-0.0826363
0.172614
0.165744
0.190612
0.179733
0.181971
-0.0818509
-0.217994
0.0878568
0.11075
-0.596307
-0.661737
-0.768839
-0.783168
-0.891021
0.243511
0.386121
0.388434
-0.511057
-0.430284
-0.572171
-0.35644
-0.422852
0.185372
0.192318
0.187354
0.202664
0.197204
0.199148
0.211213
0.208286
0.209836
0.164588
0.285918
0.033594
0.0109442
-0.568478
-0.471364
-0.556878
-0.383576
-0.38825
-0.213453
-0.185621
-0.231837
-0.237112
-0.396679
-0.425546
-0.407056
-0.335867
-0.279052
0.123234
0.113199
0.141482
0.148228
0.187845
0.18899
0.190961
0.18992
0.628788
0.651063
0.658641
0.632484
-3.88749
-6.71315
-0.267015
-0.125448
-0.000855598
0.00344437
0.00109703
0.00672894
0.00289717
-0.00391777
-0.282186
-0.27933
-0.235423
-0.257209
0.331975
0.333454
0.669688
0.660882
0.65483
0.607371
0.194775
0.196938
0.202449
0.198302
-0.229926
-0.137647
-0.177079
0.414007
0.428527
0.426134
-0.0636505
-0.148944
0.0179546
0.045105
0.318176
0.301142
0.317614
0.355748
0.392835
0.676122
0.694458
0.692698
0.701243
0.745336
0.761793
0.727041
0.153493
0.162989
0.158043
0.193944
0.191491
0.192561
0.187647
0.189276
0.186867
-0.371784
-0.759128
0.169138
0.191211
0.156304
0.172755
0.3209
0.394113
0.367572
0.378813
0.380151
-0.289794
-0.351599
-0.037647
-0.0806076
0.0699694
0.102262
0.0849305
0.599798
0.560515
0.610437
0.583814
0.545358
0.570783
-0.710839
-2.23956
-1.3423
0.235119
0.0430143
0.132866
-0.242394
-0.277194
-0.271625
0.646006
0.727066
0.342705
0.503897
0.516102
0.43348
0.464478
0.51758
0.443116
0.477623
0.51314
0.495219
0.203205
0.178296
0.17268
0.465052
0.520618
-0.176421
-0.228636
-0.278032
-0.179347
-0.138221
-0.146013
0.695342
0.581787
0.657646
0.205184
0.205867
-0.00205468
-0.00723628
0.209975
0.210056
-0.0027597
-0.0225257
0.11517
-1.16886
-0.187914
0.198351
0.188844
0.205524
-0.404802
0.0615316
-0.463396
-0.258459
-0.306301
0.196256
0.139503
0.1047
0.0090109
-0.107858
-0.0753893
-0.52126
0.202833
0.20117
0.20502
0.206054
0.206696
-0.00049421
-0.0101561
-0.00208921
-0.0588918
-0.0233828
-0.0232674
0.170821
0.187088
-0.482873
0.205205
0.207313
0.207161
0.200182
0.206003
0.204109
-0.0753885
-0.0445844
-0.0976227
-0.077429
0.0388365
0.3678
0.468835
0.328324
0.0995599
-0.142845
0.264759
0.33243
0.231891
0.394793
0.375453
0.393174
-0.127208
-0.27437
-0.119495
-0.173667
0.196348
0.194982
0.187061
0.184201
0.200431
0.198464
0.203133
0.199939
0.202971
0.204374
-0.357652
-0.387293
-0.398237
-0.462478
0.0213392
0.277132
-0.0473603
-0.0151069
-0.152989
-0.493221
-0.427846
-0.461145
-0.434725
-0.454852
-0.315987
-0.284793
-0.253475
-0.333073
-0.37909
-0.502624
-0.401523
-0.413474
0.190456
0.18938
0.195581
0.20256
0.148487
0.151801
0.120897
0.138993
0.124495
0.0709647
0.104023
0.0803826
0.00122725
0.010765
0.00582798
-0.120484
-0.224565
-0.0477254
-0.013748
-0.0141204
-0.0270646
-0.0343137
-0.118084
-0.143942
-0.481511
-0.59933
0.652054
0.600313
-0.205247
0.192042
0.198472
0.195275
0.19999
0.203087
0.203941
0.201723
0.198353
0.187786
0.189659
0.185688
0.186108
-0.426027
-0.560641
-0.383345
-0.450038
-0.191888
0.308152
0.0515463
-0.00771411
-0.0123726
0.202307
0.605304
0.407425
0.418372
0.443281
-0.668286
-0.267292
-0.599666
0.0219274
-0.157358
0.364486
0.416743
0.44074
0.386313
0.336199
-0.444782
0.212503
-0.368838
-0.325711
-0.136333
-0.238981
0.408078
0.359656
0.366775
0.381028
0.400696
0.364273
0.342909
0.340448
0.376195
0.381215
0.175063
-0.045372
-0.0904272
-0.127166
0.340555
0.215652
0.271459
0.188324
0.191148
0.194026
0.192559
0.175641
0.18275
0.178665
0.183886
0.18686
0.196258
0.196711
0.191927
0.194381
-0.373576
-0.376628
-0.335331
-0.445422
-0.438486
-0.484618
-0.377686
-0.243648
-0.278519
-0.0896832
0.0232343
-0.273104
-0.385424
-0.352529
-0.325521
-0.142544
-0.122014
-0.214582
-0.134893
-0.125158
-0.146711
-0.0453
-0.0444183
-0.480615
-0.440972
-0.417043
-0.461565
-0.300769
-0.202334
-0.192491
-0.487476
-0.591929
-0.410492
-0.339371
-0.338235
-0.37923
-0.397886
-0.311095
-0.103934
-0.120885
-0.183457
-0.405843
-0.313256
-0.359934
0.18596
0.187426
0.187496
0.198646
0.21012
0.225259
0.191505
0.168709
0.160413
0.163516
0.138835
0.148383
0.143619
0.156481
0.175787
0.18244
0.18219
0.184224
0.168917
0.170089
0.158215
0.161299
0.139074
0.122252
0.111415
-0.0512916
-0.0313324
-0.0484988
-0.0636071
-0.00985936
-0.0272952
-0.313193
-0.209489
-0.26721
-0.230503
-0.346312
-0.0511807
-0.0692118
-0.394594
-0.318844
-0.509903
-0.538784
-0.609719
0.563097
0.66997
0.492626
0.278493
0.282086
0.506889
0.604211
0.242367
0.412252
0.44341
0.214183
0.485966
0.196973
0.196421
0.193969
0.193481
0.19503
-0.343007
-0.243904
-0.224872
-0.177246
-0.0613699
0.0542835
-0.038786
-0.165176
-0.0248641
-0.0138736
0.303213
0.319799
0.264122
0.289366
0.288596
0.115381
0.190529
0.245626
0.200586
0.244418
0.26642
0.227162
0.256908
0.205092
0.163153
0.16205
0.108832
0.129242
0.107163
0.0892975
0.186889
0.16588
0.175486
0.167502
0.187173
0.214941
0.210292
0.236066
0.24814
0.17245
0.134911
0.143694
0.170646
0.133163
0.14591
0.160305
-0.121564
-0.220323
-0.132937
-0.426608
-0.337362
-0.352868
-0.39876
-0.359943
-0.0729801
-0.775972
-0.744477
-1.38236
0.148558
0.631322
0.365172
0.338088
0.398496
0.375396
0.379304
0.407244
0.413736
0.33082
0.350848
0.352633
0.302908
0.329748
0.355394
0.353203
0.184064
0.0668718
0.0582992
0.0198965
-0.101155
-0.0704954
0.131087
0.0538984
-0.017678
-0.0129531
0.150568
0.0423166
0.106828
0.144539
0.078796
0.0358096
0.231986
0.299839
0.290484
0.265289
0.180238
0.191676
0.21843
0.254841
0.281113
0.316284
0.183821
0.189282
0.190536
0.188124
0.185645
0.188392
0.18831
0.190839
0.19181
0.194764
0.193644
-0.407839
-0.394055
-0.363212
-0.387616
-0.322469
-0.326029
-0.283721
-0.296322
-0.326279
-0.314376
-0.344073
-0.357617
-0.363959
-0.353132
-0.201712
-0.194526
-0.225303
-0.254661
-0.0687475
0.0605087
0.121745
0.00919587
-0.096159
-0.077528
-0.0441522
-0.3236
-0.334185
-0.37136
-0.277032
-0.265211
-0.49809
-0.462229
-0.466093
-0.597285
-0.513964
-0.372667
-0.198024
-0.239783
-0.29069
-0.286027
-0.228114
0.170556
0.164614
0.166366
0.160921
0.15988
0.172857
0.176833
0.178514
0.183043
0.184533
0.176643
0.180752
0.184025
-0.243966
-0.114882
-0.164376
-0.219386
-0.147675
-0.102346
-0.134028
-0.217742
-0.283478
-0.274834
-0.323428
-0.444413
-0.388153
0.134505
0.124284
0.143297
0.35962
0.21467
0.130328
0.217935
0.321965
-0.0744744
0.126888
-0.0428168
0.536892
0.424497
0.566454
0.19911
-0.105246
0.0455483
0.100793
-0.0984993
-0.0268526
-0.00237904
-0.112717
-0.0827102
-0.0542951
0.0474202
-0.0760612
-0.105737
-0.352024
-0.168955
-0.0372941
-0.0595801
0.0741006
0.138648
-0.0912453
-0.167693
-0.209041
0.293495
0.314393
0.333087
0.302528
0.326099
0.249579
0.240182
0.259029
0.269035
0.262775
-1.11132
-0.820744
-1.76133
-1.06807
-0.622548
0.182621
0.135918
0.429561
0.315888
0.393498
0.375308
0.331214
0.294997
0.304616
0.340916
0.0433379
0.151331
0.125704
0.133343
0.0375951
-0.0299765
0.268607
0.262041
0.299384
0.323952
0.290274
0.324471
0.181809
0.181356
0.18068
0.177471
0.175696
0.177936
-0.242862
-0.279612
-0.238596
-0.252108
-0.272111
-0.292158
-0.38443
-0.363301
-0.284366
-0.2751
-0.285047
-0.34237
-0.185374
-0.240877
-0.308062
-0.282275
-0.337026
-0.401873
-0.420744
-0.322614
-0.235986
-0.242248
0.0610947
0.312531
0.138703
0.3089
0.147264
0.204837
0.14324
0.141044
0.175021
0.0374724
0.111707
-0.130911
-0.632599
-0.539533
0.441062
0.461581
0.249146
0.0556935
-0.171029
0.0246902
0.213658
0.152258
0.192769
0.260324
0.254314
-0.342963
-0.268909
-0.0320493
0.195034
-0.113838
-0.120776
-0.125536
0.0383665
-0.0323407
)
;

boundaryField
{
    wall-4
    {
        type            zeroGradient;
    }
    velocity-inlet-5
    {
        type            zeroGradient;
    }
    velocity-inlet-6
    {
        type            zeroGradient;
    }
    pressure-outlet-7
    {
        type            fixedValue;
        value           uniform 0;
    }
    wall-8
    {
        type            zeroGradient;
    }
    frontAndBackPlanes
    {
        type            empty;
    }
}


// ************************************************************************* //
