/*--------------------------------*- C++ -*----------------------------------*\
| =========                 |                                                 |
| \\      /  F ield         | OpenFOAM: The Open Source CFD Toolbox           |
|  \\    /   O peration     | Version:  4.0                                   |
|   \\  /    A nd           | Web:      www.OpenFOAM.org                      |
|    \\/     M anipulation  |                                                 |
\*---------------------------------------------------------------------------*/
FoamFile
{
    version     2.0;
    format      ascii;
    class       surfaceScalarField;
    location    "25";
    object      phi;
}
// * * * * * * * * * * * * * * * * * * * * * * * * * * * * * * * * * * * * * //

dimensions      [0 3 -1 0 0 0 0];

internalField   nonuniform List<scalar> 
1300
(
3.75095
5.62643
-5.74915
3.75095
-5.68217
5.62643
-4.49753
4.49753
-1.14889
1.14889
1.87647
1.87448
-2.94686
2.94686
-2.29313
2.29313
-2.57027
2.57027
-5.24648
5.24648
-5.06883
5.06883
4.67834
-4.67834
-4.35134
4.35134
-1.57442
1.57442
-3.92936
3.92936
3.17024
-3.17024
-3.93581
3.93581
-0.350278
0.350278
-0.553542
4.3045
3.19741
3.19741
-2.22954
2.22954
-4.85886
4.85886
6.21824
-6.21824
8.64176
-8.64176
-2.89261
-3.41095
1.40601
-8.64601
-4.27615
-4.27615
-8.4404
8.4404
-2.81397
2.81246
2.94209
-2.94209
-1.77872
1.77872
-4.42516
-0.0723613
-4.42516
4.50566
-0.00813837
4.50566
-1.28298
0.134087
-1.28298
3.98243
-3.98243
0.975669
0.173221
0.975669
3.06439
-3.06439
-1.87715
3.75362
1.87381
-1.87179
6.17628
-1.87917
3.75365
-5.87191
5.87191
-3.18999
0.243133
-3.18999
2.71975
0.227111
2.71975
-6.38651
6.38651
-2.25145
-0.0416806
-2.25145
2.53427
-0.241141
2.53427
2.84798
-2.84798
-2.65654
0.0862692
-2.65654
2.4963
0.0739718
2.4963
0.353551
5.27288
-5.97998
8.79245
-5.27288
0.0264024
5.20846
0.0380159
5.20846
-5.10619
0.0373672
-5.10619
5.01043
0.0583975
5.01043
4.77342
-0.095076
4.77342
-4.79086
0.112518
-4.79086
-3.16197
-3.84359
-4.35047
-0.000875887
-4.35047
-1.58706
0.0126423
-1.58706
1.53563
0.0387891
1.53563
-3.52001
3.52001
-4.30268
0.373315
-4.30268
3.12487
0.0453731
3.12487
1.8685
1.88245
5.61946
-5.61946
2.44921
-3.5762
-0.359612
-3.5762
-4.25779
-4.38397
4.25779
-0.32198
-0.620645
0.270367
-0.620645
3.15918
0.0382357
3.15918
2.40201
0.094294
-2.40201
0.172469
3.26679
-3.26679
1.60767
0.62187
1.60767
-5.56786
5.56786
4.95198
0.0584457
-4.95198
0.0931254
6.15737
0.0608637
6.15737
-6.1996
-0.0186333
-6.1996
3.05481
-6.46576
-3.62076
4.32321
0.0281378
-4.32321
0.0470543
2.91219
0.0299028
2.91219
-2.92354
2.92354
-2.98235
0.040263
-2.98235
-2.18832
0.409596
-2.18832
1.4682
0.310525
1.4682
-4.29351
-0.131652
-4.29351
-4.44059
0.137911
4.44059
0.0650747
1.00458
-1.00458
-1.42549
0.142516
-1.42549
-4.1249
-0.168616
4.1249
-0.14247
-3.87291
-0.109513
-3.87291
-3.02298
0.0406258
3.02298
0.0414138
3.11239
0.0467824
-3.11239
0.047999
-1.87083
3.75328
-1.88012
3.75393
-5.49741
-0.374506
-5.49741
6.17833
-0.306417
6.17833
3.5574
0.371963
-3.5574
0.367409
2.54828
0.171468
2.54828
-6.53335
0.146841
-6.53335
5.96773
0.418775
5.96773
2.3904
0.15788
-2.3904
0.138945
2.80351
-0.26924
2.80351
2.86328
-0.0152989
2.86328
-2.85534
0.00735775
-2.85534
2.80447
-2.80447
2.73502
0.0694574
-2.73502
0.0784724
-11.1328
11.1142
-0.0351399
-11.0977
5.17332
5.17332
4.2056
0.567823
4.2056
-5.00338
0.212517
-5.00338
3.01419
-6.63496
3.76808
-6.93005
3.7713
-12.4173
3.30377
-7.14736
4.87279
-4.87279
4.48391
0.388882
-4.48391
0.133441
-1.60565
0.0185851
-1.60565
-2.90483
-0.615174
-2.90483
4.18167
-0.661664
4.18167
-3.02993
3.02993
-3.07841
0.0484787
3.07841
0.0464655
3.20854
-0.405028
-3.20854
-0.367653
0.797666
0.178003
-0.797666
0.177021
3.48504
-0.218251
3.48504
-3.0639
-0.202883
-3.0639
-1.61138
0.00573774
1.61138
-0.00371479
-5.81624
0.248374
-5.81624
-11.1907
0.0930152
-11.1527
-6.10659
-6.10659
2.33381
11.1263
-2.88307
0.0277304
2.88307
0.0291187
2.97782
0.0521124
-2.97782
0.0542716
-2.86626
0.0617876
2.86626
0.0572832
-2.5712
0.382883
-2.5712
-1.04755
1.04755
-1.2402
0.192658
1.2402
0.227995
1.24346
-0.238883
1.24346
1.50263
0.0330036
-1.50263
0.0771332
-3.77328
-0.0996342
-3.77328
6.42131
-0.242979
6.42131
-2.934
-0.129904
2.934
-0.0707203
-0.0332896
11.1475
-5.14003
0.0338369
5.14003
-11.2083
11.2422
-3.24915
0.677949
3.24915
0.956446
5.29166
0.276203
-5.29166
0.288281
5.39654
0.571188
-5.39654
0.523752
-2.40887
-0.495967
-2.40887
-4.91429
-0.583114
4.91429
-0.732619
-11.4753
-0.203778
11.6791
-11.4169
6.02002
0.137358
-6.02002
11.3795
-0.951579
-0.0529988
0.951579
0.0959674
1.55369
-0.310227
1.55369
3.67251
-0.187469
-3.67251
-0.100771
-6.56042
0.0270728
6.56042
-0.139112
-1.96359
-0.445276
1.96359
-0.409904
-4.26667
4.30491
1.90961
-2.76969
-3.69607
-7.15367
1.85185
1.90143
4.30106
-7.83647
-4.58084
-7.78942
7.26942
-6.98113
-9.29005
9.19497
7.55227
-7.66179
-5.78465
5.83112
6.48196
-6.44055
1.87902
1.8746
7.94454
-7.7014
-15.6377
15.2632
5.91888
-5.96057
16.0944
-15.9476
-17.9101
18.4813
-5.74779
5.83406
-6.6758
6.68316
-6.8641
6.79338
-2.56746
-4.36258
11.0272
-11.0281
9.4268
-9.78641
-8.50691
8.88022
3.38265
0.922256
3.42944
-1.88237
3.76138
-1.87128
3.78089
3.85007
-6.41753
2.78489
-6.48096
5.3945
4.03229
-5.07252
-2.08114
-5.91874
5.94864
-5.82168
5.87896
8.89756
-8.96992
-1.88517
3.75977
-1.86876
3.77019
-3.42535
-2.3593
3.37998
0.921089
6.52464
4.50254
-6.55277
-1.23664
-7.76944
7.58197
-8.05179
7.84891
-0.447411
5.82148
-5.37407
4.41145
-1.55476
7.37624
5.71465
5.92717
5.86698
-5.59078
1.11415
-6.48822
-6.3951
-2.54483
2.68735
2.52127
-2.34805
5.92637
1.6259
5.7839
-5.53731
-2.12448
-5.63694
3.82137
2.00974
3.86985
4.07578
2.40618
4.1164
3.03124
-3.035
0.00376057
-3.05674
6.08799
0.724769
-5.41605
-4.49496
4.92445
3.02009
5.15156
-5.5015
-2.19991
-5.13409
-9.52013
-6.11758
-10.1032
10.0978
5.1654
9.79139
-11.9366
11.7975
3.77178
2.14711
3.53064
-4.04267
-1.9179
-3.90372
13.0532
-3.50432
-9.54883
-10.6234
-7.28674
10.2046
5.88978
10.6291
7.85221
11.1529
4.73562
8.31754
-10.6254
3.33866
-3.87412
-1.87367
-3.79565
3.72599
2.10807
3.79996
-4.20112
-2.47468
-4.17339
-4.23904
-2.62507
4.25433
2.42882
-4.31935
-3.73245
4.44925
2.34413
3.70918
-8.29002
3.43818
-7.80076
-8.20374
-2.82432
-8.0703
5.00354
1.55688
-6.56042
-1.41399
9.9761
-5.9438
7.89495
-5.04944
-4.73697
-5.41709
-6.80548
-1.70142
-6.66757
-8.84161
8.34564
-9.15851
8.49685
12.737
-5.71685
-7.02013
-3.96828
-2.47226
3.92029
-0.490849
-3.71222
3.71598
0.0491614
3.83005
4.7523
4.26146
-3.886
-1.93568
-3.83173
3.83343
2.04553
3.89522
6.7347
2.16286
6.72657
-6.40744
-2.56248
-6.53909
9.1058
-8.69621
2.95922
-2.95348
5.24626
2.60265
-5.02801
-2.74143
6.0996
-3.05511
-3.04449
-12.2129
10.5744
1.63852
-4.83669
-0.425241
-0.0749628
-5.50648
-3.78356
5.39397
0.533202
11.1076
7.32405
-5.51286
5.76123
6.1662
6.22464
-0.170453
5.85764
-5.17969
5.35662
-2.46669
-2.88993
5.27924
-5.44786
-1.25985
-5.27143
4.01158
0.33604
1.78329
-1.51293
-2.03577
-0.509063
-1.95864
1.50103
1.02024
1.67903
0.993433
1.69392
-2.92307
0.520052
2.40301
-1.92963
-1.828
-3.66826
-1.02636
4.69462
5.52917
2.0528
-5.4284
-0.208546
2.74082
-2.70203
-0.799395
-2.86887
2.10124
-2.90064
-3.53292
-1.90806
5.44098
-3.37035
-0.461374
3.31824
0.551612
-3.82476
-2.09398
3.78449
0.331909
-3.12422
6.18876
-3.06455
-5.05989
2.5295
3.55849
4.53924
-4.79013
2.44592
2.34421
-1.23164
4.02725
1.12431
4.19872
-6.76137
4.56146
5.7226
3.15763
-6.09456
0.960469
-5.8009
8.46968
-7.30497
-1.16471
4.12954
4.34014
7.18856
5.54842
-5.73699
12.9256
-1.13407
-6.1709
6.93497
-3.77735
4.77392
-8.55127
-10.3223
4.15144
-9.16313
11.0221
-1.85898
-3.60582
-8.33078
12.7689
-1.21763
-11.5513
8.57376
-4.19363
-4.57365
8.76727
-7.69795
6.49154
-1.32645
-5.16509
-10.2108
-5.73672
10.1838
1.61372
-10.9413
14.28
-2.62381
3.43098
0.099656
3.16174
3.27276
-5.92249
2.64973
4.42519
-5.75164
1.6421
-7.56459
-6.77946
11.268
-4.48854
-9.60378
-9.90115
0.297378
1.80789
12.4721
-9.6601
6.42971
3.2304
3.31012
0.585103
-3.37957
-0.416079
0.320232
4.5425
-4.86273
4.12019
4.21449
3.41602
1.12648
3.83512
2.11352
-3.86424
-0.309149
-4.12985
1.50478
-1.70102
-3.65549
5.16027
-4.08957
0.434072
-2.73229
-3.54927
6.28156
-4.60596
3.04052
3.14824
5.08605
-4.92855
1.37928
-2.4289
-2.49965
2.71029
-4.41131
1.9615
3.19878
4.30563
0.573181
6.2287
5.03929
-7.78558
-0.0151747
9.54184
-8.30519
3.17895
7.97391
-9.60866
-0.292498
-8.3628
-0.0280084
-5.91579
-6.58843
5.06927
-6.77069
-3.482
6.14864
0.577928
-6.21371
-0.453858
-5.99337
-2.84824
-6.43864
-3.06548
-6.09303
-8.80247
-1.63743
-7.16504
6.70821
-6.64883
-3.45441
7.38145
1.1154
-7.38616
7.33316
-7.45918
7.14895
0.0944931
3.62149
4.35595
1.88369
-2.38985
4.27354
-5.06597
7.22883
-8.46623
3.40025
3.95075
-6.51323
-4.51547
5.04503
4.06078
5.35555
8.98511
-10.549
1.56394
-10.8745
12.1699
-1.29537
-16.6647
5.79023
-7.6796
2.69707
0.262152
2.71565
0.675146
2.41254
-3.08769
-2.27834
-2.28205
-2.29896
-3.36109
5.66005
1.13125
-3.35403
2.22279
-3.46636
4.59761
-0.0694062
-3.28463
5.2436
-2.83106
5.50576
-3.53576
1.96999
3.26853
5.58359
-2.31506
4.2935
-1.69085
1.80902
-4.12407
-1.55207
-3.01034
5.11841
-3.27122
3.7053
-0.25568
3.96098
-4.04233
0.987226
-0.626314
3.58817
3.76064
4.24449
-3.11801
2.92407
-4.61493
-1.2
-4.04174
-0.842968
-0.32264
-3.76301
4.08565
6.07586
-6.3985
-5.28724
9.606
-4.31876
7.74292
-5.42276
-2.32016
-4.28933
-4.40688
3.90644
1.9512
9.69412
0.209663
-5.63243
-4.97003
-4.01359
3.23097
2.12565
-2.00323
3.64175
2.07819
-0.294898
0.56968
1.10936
1.86945
-1.29977
0.226549
1.6429
-1.28638
2.01431
0.726505
-2.04732
0.0886804
-1.38791
3.48916
1.0151
-2.03534
0.735576
1.00495
-3.47164
4.76517
-2.46762
-2.29755
5.77013
1.14852
-3.61614
4.1229
-3.78686
2.31092
-3.33728
-1.30522
-5.09208
-3.46618
-2.47586
4.69864
-3.18419
5.237
1.16572
-5.02845
6.19417
-3.55374
1.64568
-3.04012
3.76663
-1.04386
-1.99626
2.75381
2.68717
-2.91547
0.0466012
-0.161658
2.29504
-2.4567
-0.605598
-2.53523
-4.57307
4.90498
-2.10666
4.55257
2.16688
-1.91379
6.46637
1.8115
-3.7253
-3.24839
-3.70976
-1.38109
3.15815
-0.0977955
-3.80593
-5.26289
3.64805
0.550672
-7.00389
7.69745
-0.693564
-3.9838
-0.577667
4.70721
-5.76903
0.017389
-4.12693
3.57052
4.69483
5.2455
-11.417
-0.134318
-6.2516
1.2041
-7.4557
5.54424
-3.61482
7.76627
-10.4261
6.97171
-9.31073
6.60156
-0.854138
6.71999
-4.07026
2.82884
-8.56556
-6.95184
4.89996
-2.75286
4.99962
-3.3906
8.39022
-6.01442
5.44997
2.94025
-1.88675
-3.53034
-4.67634
2.78959
0.773631
3.93537
4.97009
-2.85658
4.66094
2.22505
-4.65395
-2.18627
-6.50448
1.85053
-3.35624
-1.91037
3.7609
3.17568
3.76079
1.26125
-3.34471
8.80182
-8.50444
-4.31329
-2.27514
5.49231
-2.70272
5.16045
-7.4356
-0.755341
4.89427
-0.862178
-4.03209
0.822587
-4.30459
1.65647
-5.96105
5.11423
-5.56808
2.19024
-9.86984
-5.19592
-5.09995
-2.23466
-5.22452
-7.65999
5.42533
-1.86976
5.4634
-8.67801
7.81584
-3.49184
8.91716
-5.40354
-1.03511
5.81344
1.33551
10.2527
0.117684
-4.63316
-1.86628
3.99036
-2.12407
1.36469
-3.64532
0.345034
2.41223
3.3579
-6.42381
-0.0894261
-4.72258
-3.92342
7.9842
5.68258
11.7584
1.20939
9.19446
-1.21026
10.4038
4.14529
4.37329
-3.02155
4.58549
1.06409
4.46435
-0.850811
2.8208
1.86484
1.87749
0.824543
2.29809
1.46255
3.28532
0.197633
-2.08442
4.65105
-8.66463
-0.98138
-8.09681
1.09816
5.73635
-4.63819
3.18974
-1.06409
1.06566
0.075669
-1.6839
1.60823
-2.81426
-1.9788
-0.335902
-1.61859
2.35416
1.87057
-2.01826
-0.795999
0.318076
-3.78426
3.0192
-2.9726
-0.285433
5.90874
-2.71252
0.255819
-1.06683
-2.27941
-2.78847
2.69979
6.17399
0.29238
3.10944
5.19736
3.10337
0.246798
3.87328
-5.73226
-3.6913
-5.86658
-0.322338
4.38487
3.4855
8.98661
6.42575
3.72303
-3.71257
-12.217
6.54825
-1.96276
5.25289
-1.2208
-4.74026
4.97128
2.25755
-5.54921
-0.0188751
-4.75913
-6.72189
-0.553446
8.36928
-9.69923
8.66412
5.81588
1.34915
-4.40111
-0.698849
4.20845
0.16484
10.5687
-1.12289
-6.87175
7.99464
-4.61346
3.63208
0.865404
2.77635
2.47364
1.40954
-5.4622
-10.1004
-1.92469
-1.54695
-4.22224
0.472382
-2.34295
6.27525
-2.64317
3.95509
5.35147
6.41714
-2.18034
-4.21816
6.4991
-2.54401
3.87313
)
;

boundaryField
{
    wall-4
    {
        type            calculated;
        value           uniform 0;
    }
    velocity-inlet-5
    {
        type            calculated;
        value           uniform -3.75095;
    }
    velocity-inlet-6
    {
        type            calculated;
        value           uniform -5.62643;
    }
    pressure-outlet-7
    {
        type            calculated;
        value           nonuniform List<scalar> 8(5.74915 5.68217 6.30356 7.23999 7.00556 6.67557 6.78228 7.07507);
    }
    wall-8
    {
        type            calculated;
        value           uniform 0;
    }
    frontAndBackPlanes
    {
        type            empty;
        value           nonuniform 0();
    }
}


// ************************************************************************* //
