/*--------------------------------*- C++ -*----------------------------------*\
| =========                 |                                                 |
| \\      /  F ield         | OpenFOAM: The Open Source CFD Toolbox           |
|  \\    /   O peration     | Version:  4.0                                   |
|   \\  /    A nd           | Web:      www.OpenFOAM.org                      |
|    \\/     M anipulation  |                                                 |
\*---------------------------------------------------------------------------*/
FoamFile
{
    version     2.0;
    format      ascii;
    class       volVectorField;
    location    "25";
    object      U;
}
// * * * * * * * * * * * * * * * * * * * * * * * * * * * * * * * * * * * * * //

dimensions      [0 1 -1 0 0 0 0];

internalField   nonuniform List<vector> 
918
(
(0.985164 -0.000507443 0)
(0.00500715 2.96625 0)
(-0.0193343 1.52031 0)
(0.979703 0.00215059 0)
(0.000489561 1.50584 3.59433e-20)
(-0.00703777 2.94879 -1.84028e-18)
(0.846422 1.1871 7.33931e-19)
(0.383896 0.173962 -8.89636e-21)
(0.999907 -0.000289441 0)
(0.0488446 0.850846 0)
(-0.0341446 0.647852 0)
(0.735339 -0.00997835 0)
(0.011115 2.93038 0)
(0.0017502 2.79499 0)
(-0.0175845 3.16382 1.08492e-18)
(0.0278195 1.3138 1.42686e-19)
(0.487218 0.0737034 5.55367e-19)
(0.191448 1.21732 6.374e-19)
(0.962939 0.00500513 0)
(-0.0202124 1.12713 0)
(0.11158 0.220735 -4.55634e-19)
(1.00202 -0.00498466 0)
(1.00021 -0.00979809 0)
(0.975711 -0.006453 0)
(0.636952 -0.0421124 0)
(0.0168853 2.6353 0)
(-0.015103 2.91016 6.33028e-19)
(-0.0339919 1.52581 0)
(-0.0482853 1.67872 0)
(-0.0298931 1.52367 0)
(-0.00892109 1.93986 0)
(0.0218687 1.54123 -2.84174e-20)
(0.014526 1.36393 0)
(-0.0206177 2.98759 -6.42471e-23)
(-0.0166981 3.0053 1.43036e-18)
(0.00210167 3.0002 0)
(0.869983 -0.00952915 0)
(0.400537 0.938645 -3.46699e-20)
(0.822058 1.20658 -1.03036e-18)
(0.970719 1.03965 9.65315e-19)
(0.690609 1.30341 -1.70268e-19)
(0.689777 1.29344 9.52077e-19)
(0.423822 0.267974 8.67982e-21)
(0.415897 0.158667 0)
(1.15821 0.559843 0)
(0.385335 0.274045 4.03304e-20)
(0.335738 0.173309 -4.18556e-20)
(0.919587 -0.00749712 0)
(1.00028 0.00015411 0)
(0.99991 0.000347529 0)
(1.00363 -0.00779633 0)
(1.00096 -0.00097034 0)
(1.00017 1.63958e-05 0)
(0.081893 1.77856 -1.93061e-19)
(0.0352626 0.986845 0)
(0.102442 0.933281 0)
(0.0270235 0.93029 0)
(0.0394428 0.779374 0)
(-0.0728838 1.89193 0)
(-0.00465704 0.757521 0)
(0.00603903 0.623235 0)
(-0.0343421 0.790276 0)
(-0.0388359 0.733733 0)
(0.830517 -0.0124239 0)
(0.853079 0.0217622 0)
(0.765647 0.00233097 0)
(0.833498 0.0241246 0)
(0.717532 -0.0173891 0)
(0.0146948 3.0004 6.7312e-19)
(0.011509 3.00795 0)
(0.0061239 3.00281 0)
(0.0135374 2.99734 7.49476e-24)
(0.00798769 2.95847 -1.00042e-18)
(0.0144932 2.98208 0)
(0.0108291 2.90359 0)
(0.0246276 2.93064 1.33247e-24)
(0.00435796 2.82524 0)
(0.0311179 2.91595 0)
(-0.00575893 2.74434 0)
(0.311416 3.56434 0)
(-0.132278 3.64647 0)
(0.141222 3.25482 -1.00966e-18)
(-0.0117189 2.98766 0)
(-0.0862351 1.86958 0)
(0.0711595 1.48911 -1.40774e-19)
(0.00900212 1.27889 1.97738e-19)
(0.557213 0.156533 -1.91327e-19)
(0.490134 0.0427634 -1.85097e-19)
(0.536486 0.179445 -5.76694e-19)
(0.474723 0.0948134 -3.88438e-19)
(0.219026 0.907407 0)
(0.270619 1.36032 -6.64519e-19)
(0.389953 1.3114 1.09151e-18)
(0.987664 0.0085916 0)
(0.942172 0.00594187 0)
(1.0003 0.000579688 0)
(1.00286 0.00930623 0)
(1.003 0.00843852 -1.06857e-18)
(0.991927 0.00970046 8.06829e-19)
(-0.0480236 1.23439 0)
(-0.0437119 1.03784 0)
(-0.0565552 1.51316 0)
(-0.0391868 1.34747 0)
(-0.0128756 1.22832 0)
(0.165607 0.229493 1.40494e-19)
(0.214659 0.206086 0)
(0.993515 -0.00837688 0)
(0.954358 -0.00644476 0)
(0.798681 0.0286898 0)
(0.76263 0.0393018 0)
(0.691164 -0.0324656 0)
(0.97044 -0.00368377 0)
(0.700217 0.0568385 0)
(0.541151 -0.0200196 7.3687e-19)
(-0.0363049 2.86419 3.17672e-19)
(0.0425098 2.90849 0)
(0.0557361 2.88416 0)
(-0.00538352 2.69808 0)
(-0.0129534 2.98536 5.80085e-19)
(-0.0181177 2.89544 0)
(-0.0153298 2.98812 -1.83887e-18)
(-0.0133746 2.92525 6.35662e-19)
(-0.0753527 1.74596 0)
(-0.0754764 1.77721 0)
(0.0525563 1.5034 3.23949e-21)
(0.035649 1.49853 0)
(0.00773819 1.3397 0)
(0.937286 -0.00741467 0)
(0.855358 -0.0092258 0)
(0.864685 0.00759751 0)
(0.948678 -0.00776748 0)
(0.883287 -0.00864252 0)
(0.514106 1.13396 3.23294e-20)
(0.565255 1.18733 0)
(0.361668 0.879537 3.98702e-21)
(0.304329 0.740472 0)
(0.930659 1.07847 -2.79475e-19)
(1.04422 0.87823 5.72262e-19)
(0.384074 1.39998 0)
(0.544681 1.37074 0)
(0.547456 1.33111 0)
(0.101346 0.164552 -1.30748e-19)
(0.467089 0.253534 0)
(0.451418 0.149056 1.11692e-19)
(1.01425 0.932272 0)
(1.08219 0.77815 0)
(1.10728 0.720409 -5.02285e-19)
(1.13838 0.619061 0)
(1.18918 0.403849 5.7717e-20)
(0.957278 -0.00866112 0)
(0.962197 -0.0100861 0)
(0.901249 -0.00811593 0)
(0.984134 -0.00915836 0)
(0.974548 -0.00942672 0)
(0.936989 -0.00627037 0)
(1.00017 0.00233774 0)
(1.00088 0.00140896 0)
(0.999912 0.000853767 0)
(0.0337471 2.03355 1.30932e-19)
(0.122386 1.71305 0)
(0.0242423 2.13927 8.64314e-20)
(0.0423377 1.85349 -8.67207e-21)
(0.137159 1.2075 -5.28111e-19)
(0.0464722 1.07638 0)
(0.0960442 1.07647 0)
(0.0042695 0.862888 0)
(-0.0100587 0.720192 0)
(-0.0564982 2.12488 3.13871e-21)
(-0.0348537 1.94429 0)
(-0.090512 2.02 2.04167e-19)
(-0.0973657 1.75798 -4.12088e-19)
(0.0117617 0.82893 0)
(0.0198419 0.784524 0)
(0.00242146 0.666435 0)
(-0.0509779 0.868481 0)
(-0.0442298 0.812671 0)
(0.926211 0.00975227 0)
(0.840669 -0.00828348 0)
(0.919477 -0.000254221 0)
(0.836371 -0.0118417 0)
(0.813746 0.0055158 0)
(0.904099 0.0171889 0)
(0.88207 0.0201472 0)
(0.789258 0.00341778 0)
(0.00572346 3.06475 -5.89081e-21)
(0.0165544 3.05802 0)
(0.014698 2.96912 0)
(0.0085213 2.87628 0)
(0.930373 3.98478 0)
(1.24629 3.31598 1.01539e-18)
(0.0710506 3.07972 0)
(-0.0269951 2.90916 0)
(-0.1126 1.76821 0)
(-0.117693 1.84728 0)
(-0.092917 1.80755 0)
(-0.0365362 1.9392 1.09692e-21)
(-0.0992552 1.90004 0)
(-0.0626474 1.89029 0)
(-0.0439848 1.42091 9.29365e-22)
(0.00644265 1.5706 -2.44663e-19)
(0.0554914 1.50101 -2.02178e-19)
(-0.0232052 1.29689 0)
(0.586667 0.12444 2.80139e-19)
(0.505611 0.0162759 -2.73575e-19)
(0.259378 1.53749 0)
(0.261547 0.679706 -2.06816e-19)
(0.176022 1.62808 -6.9347e-19)
(0.227228 1.15827 6.95234e-19)
(0.90277 0.00664809 0)
(0.967649 0.0109037 0)
(0.974772 0.0108109 0)
(0.923722 0.00670486 0)
(-0.0659116 0.976041 0)
(-0.0551133 1.10771 0)
(-0.0591993 0.930923 0)
(0.33164 0.266247 3.6859e-19)
(0.27496 0.244125 -4.46379e-19)
(0.283577 0.18842 0)
(1.09745 0.086536 -4.36193e-21)
(1.08158 0.040344 0)
(1.00938 0.0408763 0)
(0.906354 0.0032711 0)
(0.609528 0.0956957 0)
(0.6404 0.06941 -1.18653e-18)
(0.521232 0.00140637 4.53496e-19)
(0.00947912 2.98152 4.05933e-19)
(-0.0326708 2.86693 4.76414e-20)
(0.00375635 3.05016 -1.27462e-20)
(0.0200691 3.04351 4.58963e-19)
(-0.015025 2.99656 2.11555e-20)
(-0.0129843 2.94947 -8.56901e-23)
(-0.0172647 3.01198 -4.02013e-19)
(0.014807 3.02398 2.90505e-19)
(0.00730502 3.03671 -4.53259e-19)
(0.929795 -0.00117155 0)
(0.937136 -0.00354061 0)
(0.843521 -0.00766872 0)
(0.957007 0.0113865 0)
(0.943667 0.0124943 0)
(0.88277 0.00638681 0)
(0.919741 0.0154084 0)
(0.927752 0.0144128 0)
(0.840355 0.00646136 0)
(0.721 1.41654 3.32343e-19)
(0.755749 1.5269 0)
(0.214035 0.354717 2.46696e-20)
(0.178806 0.621436 2.09643e-19)
(0.260125 0.702531 -1.18652e-19)
(0.262286 0.567278 2.20891e-19)
(0.305593 0.723892 7.44973e-19)
(0.113134 0.195032 2.13967e-19)
(0.51824 0.202308 4.16869e-19)
(0.498811 0.230269 1.05296e-19)
(0.46991 0.125355 2.1065e-19)
(1.17773 0.460681 3.02256e-19)
(1.19233 0.25614 3.14378e-19)
(0.0113403 2.15038 -1.22396e-20)
(0.0482645 1.92538 0)
(0.961269 0.0316273 0)
(0.930275 0.017902 0)
(0.862933 -0.00656989 0)
(0.0110607 3.07452 0)
(0.0198045 2.94404 7.83516e-19)
(0.0165103 2.9564 0)
(0.00618547 2.85078 -7.77226e-19)
(0.00612445 3.09106 1.85208e-19)
(0.0073641 3.08269 0)
(0.789526 1.8314 -2.40744e-19)
(1.25385 2.51312 6.63812e-19)
(0.772133 1.97204 -1.49754e-18)
(0.0208045 2.9829 -2.94688e-19)
(0.0369137 3.00511 0)
(-0.0326092 2.88094 0)
(-0.112074 1.85469 -1.5902e-20)
(-0.0455583 1.70084 4.87319e-19)
(-0.0689669 1.5857 -1.516e-20)
(0.275254 1.34612 6.74578e-19)
(0.211073 0.455884 -4.6517e-19)
(0.062553 1.95954 4.46329e-19)
(0.136896 1.84937 -5.64644e-19)
(0.178575 1.45174 8.63734e-20)
(0.00209493 3.1186 -1.08753e-18)
(0.0168246 3.11784 1.16422e-18)
(-0.00878033 2.98125 5.00493e-19)
(-0.00304181 2.97772 -4.41111e-19)
(-0.0212691 2.88197 -5.09737e-19)
(0.0087392 3.09966 -1.35504e-18)
(0.00246351 3.10624 1.3181e-18)
(0.245209 0.638246 0)
(0.201928 0.628098 -3.97244e-19)
(0.106316 0.211155 1.80518e-19)
(0.328246 0.844934 6.42684e-19)
(0.173637 0.235102 -9.8367e-19)
(1.18402 0.173263 -6.00298e-20)
(1.19191 0.309204 0)
(1.1727 0.121029 1.23364e-19)
(-0.041577 2.17343 2.57381e-21)
(-0.00554948 2.17923 0)
(0.0187499 1.96467 0)
(0.337289 1.24167 -2.44919e-19)
(0.353421 1.058 -5.20733e-19)
(0.185768 0.329031 8.95331e-19)
(1.00583 -0.0109385 0)
(1.00763 -0.00766528 1.94744e-19)
(-0.0967218 1.69949 0)
(-0.103501 1.68864 0)
(1.00223 0.00354018 1.84287e-21)
(1.00364 0.00937209 4.01148e-19)
(-0.0299427 1.96125 -1.40611e-21)
(-0.0143749 1.98215 0)
(0.0383736 3.18166 1.07721e-19)
(0.399743 3.49906 0)
(1.12461 0.643867 6.82326e-20)
(1.01301 0.0130703 -2.04583e-21)
(1.02104 -0.0106216 0)
(1.00173 0.000105466 9.85277e-23)
(0.106649 1.35924 0)
(0.137193 2.57527 0)
(-0.0170963 1.04902 0)
(-0.0293477 2.65758 -2.51469e-19)
(-0.207557 2.62063 -2.45565e-19)
(1.00765 0.026638 2.6786e-21)
(1.05578 -0.00414662 0)
(1.0794 0.0239571 0)
(-0.134568 1.84536 0)
(-0.0601028 2.17005 0)
(-0.207737 1.4648 0)
(0.279048 1.46724 -4.40866e-19)
(1.01123 -0.00968517 0)
(1.00937 -0.0150161 0)
(1.00253 0.000655015 2.48595e-19)
(1.00548 -0.00492997 -2.92509e-19)
(1.00121 -0.00103644 0)
(-0.178594 1.79196 0)
(-0.135095 1.70263 0)
(-0.139837 1.76337 0)
(-0.185914 1.48307 0)
(-0.138563 1.59808 0)
(-0.136019 1.55455 0)
(1.03453 -0.00724901 0)
(1.02068 0.0151269 -1.08464e-21)
(0.781858 1.25758 5.2372e-19)
(1.00218 0.0003643 -2.46434e-19)
(1.00411 0.00526933 2.92393e-19)
(1.00117 0.00206226 0)
(1.01292 0.0102738 2.41626e-19)
(1.00796 0.0081736 -3.00234e-19)
(1.00874 0.0145293 0)
(-0.045486 2.15689 0)
(-0.0292496 2.05564 -7.21962e-20)
(-0.016023 2.07166 6.09754e-20)
(1.19638 0.259828 -8.49761e-20)
(1.13419 0.0890511 0)
(0.0491227 3.07717 -5.02963e-19)
(0.0674065 2.85182 -4.01739e-20)
(0.145813 3.19542 8.07368e-19)
(0.140428 3.22484 2.62622e-21)
(0.138196 3.23919 0)
(0.0215113 3.13814 1.08615e-19)
(0.0794658 3.16149 4.89713e-19)
(0.0720967 3.18835 -2.1e-19)
(0.0244382 3.12915 0)
(0.658755 0.323933 0)
(0.578886 0.372622 0)
(1.09604 0.673709 -2.59649e-19)
(1.0943 0.808092 3.99834e-19)
(1.15456 0.563628 0)
(1.18536 0.50979 0)
(1.01616 0.013192 -4.46815e-19)
(1.01499 0.014068 5.5774e-19)
(1.02504 -0.0105309 0)
(1.02306 -0.0123614 0)
(1.0067 0.00239106 0)
(1.01061 0.00361327 0)
(1.00442 0.00174122 0)
(1.00986 0.00626074 0)
(1.00787 0.00588723 0)
(1.00444 0.00441864 0)
(0.0954393 1.35855 0)
(0.0926133 1.31081 0)
(0.117095 1.38464 0)
(0.142185 1.40492 0)
(0.143515 2.59669 0)
(0.187371 2.65494 -1.96561e-19)
(0.102067 2.6526 0)
(0.0764755 2.65776 -2.46457e-20)
(0.0331659 2.67421 2.26618e-19)
(-0.0346363 1.01754 0)
(-0.0918177 0.956594 0)
(0.0861697 1.07133 0)
(0.0543325 1.00627 0)
(0.0416737 2.17526 4.08582e-19)
(-0.185419 2.65301 -3.31544e-19)
(-0.0893388 2.70547 -3.94582e-19)
(-0.144392 2.68359 0)
(-0.217103 2.63637 6.33767e-19)
(-0.219962 2.57925 4.04269e-19)
(0.0738503 2.22979 -2.77738e-19)
(-0.163426 2.58906 4.68358e-19)
(-0.0854537 2.55983 4.76827e-19)
(1.01602 0.0342138 4.43407e-19)
(1.00866 0.0209415 -5.45682e-19)
(1.00806 0.03618 -4.53666e-19)
(0.99012 0.0156426 5.87748e-19)
(1.05635 0.000510441 0)
(1.04381 -0.0136816 0)
(1.07802 0.0294238 0)
(1.06192 0.00599841 0)
(1.05833 -0.0018692 0)
(1.1183 0.0799335 0)
(1.09066 0.0460162 0)
(1.09232 0.0389083 0)
(-0.0985791 1.96044 7.03393e-22)
(-0.161464 1.91343 0)
(-0.114505 1.91539 0)
(-0.112459 2.27804 -7.66571e-20)
(-0.10049 2.30047 5.48874e-21)
(-0.286133 1.85854 -3.6204e-20)
(-0.208767 1.79559 3.66896e-20)
(-0.256104 1.62308 0)
(-0.217597 1.67091 0)
(-0.185647 1.69013 0)
(-0.242736 1.39215 0)
(-0.145589 1.26026 0)
(0.372033 1.47876 8.39656e-19)
(0.404238 1.49215 3.32195e-19)
(0.591411 2.43675 -1.53375e-19)
(0.408758 2.53068 4.18549e-19)
(0.354856 2.08549 -4.99408e-20)
(1.021 -0.00860976 0)
(1.01546 -0.0100037 0)
(1.01477 -0.015641 0)
(1.00784 -0.00143871 0)
(1.00489 -0.00121768 0)
(1.00771 -0.00486925 0)
(1.0092 -0.0037113 0)
(1.01405 -0.00455566 0)
(1.02151 0.0156463 4.24676e-19)
(1.01784 0.0156942 -5.47543e-19)
(1.02225 0.0176468 -4.24771e-19)
(1.01936 0.0165833 5.31787e-19)
(0.752161 1.30839 0)
(0.687107 1.36246 6.1665e-19)
(0.860105 1.1999 3.62191e-19)
(0.906034 1.15605 -4.81914e-19)
(1.15666 2.61799 -5.56115e-19)
(0.833414 0.100419 2.88605e-19)
(1.13486 0.102828 0)
(1.17823 0.183863 7.26772e-20)
(1.16338 0.157935 3.20628e-21)
(0.992465 0.125999 0)
(0.142343 2.96418 1.36921e-19)
(0.120722 2.86974 -6.56625e-19)
(0.0319628 2.36348 4.69348e-19)
(0.0971719 0.0560439 -1.96625e-19)
(0.344402 3.42765 -4.41274e-19)
(0.197822 3.31866 0)
(0.239869 3.36214 5.74678e-19)
(0.251597 3.0375 -7.6403e-19)
(0.346212 3.19722 0)
(0.00661321 3.12088 2.55987e-20)
(0.0166345 3.12979 -3.28044e-19)
(0.0149657 3.12576 4.82824e-19)
(0.0371044 3.14015 0)
(0.035805 3.1512 0)
(1.21979 2.61904 0)
(0.54412 0.844058 -2.38714e-19)
(1.02508 0.983869 -2.06804e-19)
(0.963367 1.05103 0)
(0.807212 0.950634 5.64032e-20)
(1.0477 0.86543 3.00072e-20)
(0.389669 0.426845 -5.24583e-19)
(0.699394 0.33786 -2.39497e-20)
(0.685537 0.263226 2.26416e-19)
(0.592408 0.403818 1.75243e-20)
(0.521485 0.380227 -7.16807e-19)
(0.669374 0.357552 0)
(0.691514 0.431824 3.71352e-19)
(0.695314 0.43065 0)
(0.628068 0.39091 0)
(0.614732 0.323984 0)
(0.777175 0.604168 1.28859e-19)
(1.19408 0.277802 5.54683e-20)
(1.19002 0.413358 0)
(1.20247 0.36193 0)
(0.770866 0.203316 3.31765e-19)
(0.823779 0.541901 -1.84173e-19)
(0.732126 0.512183 2.99234e-19)
(0.91751 0.4184 -2.78289e-19)
(1.01983 0.0144803 2.94534e-19)
(1.01796 0.0140398 -3.00639e-19)
(1.01594 0.0154301 0)
(1.03534 -0.00657893 0)
(1.02934 -0.00895189 -2.6969e-19)
(1.02706 -0.0130631 2.66854e-19)
(1.02526 0.00937926 0)
(1.02402 0.0128365 0)
(1.01142 0.00389664 0)
(1.01434 0.00862003 0)
(1.01521 0.00333705 0)
(1.01414 0.00257788 0)
(0.0815567 1.33576 0)
(0.0890713 1.22661 0)
(0.13859 1.34803 3.41062e-19)
(0.261997 1.46403 2.52061e-19)
(0.16303 1.43577 5.36301e-19)
(0.190189 1.44299 -8.7579e-19)
(0.177582 1.37324 0)
(0.129404 1.60278 2.83861e-19)
(0.0892724 1.56387 0)
(0.354361 2.04228 7.25678e-20)
(0.352501 2.36684 2.2618e-19)
(0.173307 1.45042 -2.47833e-19)
(0.267161 1.36038 1.91493e-19)
(0.197372 1.35586 -1.5358e-19)
(0.279711 1.30213 3.20263e-19)
(0.252016 1.58276 0)
(0.252044 1.62324 -2.11981e-19)
(0.0501137 2.27184 1.04541e-19)
(0.0461206 2.66808 0)
(0.0580553 2.39018 -1.80064e-19)
(0.0343995 2.41005 0)
(0.0711268 2.66112 2.60017e-20)
(0.0532362 2.69327 0)
(0.082634 1.47274 4.93681e-19)
(0.210739 1.63406 0)
(0.196517 1.36591 0)
(0.126079 1.31789 -5.4675e-19)
(-0.0361066 2.6784 -3.99142e-20)
(0.0428804 2.68651 -3.01382e-19)
(-0.0103135 2.72252 -2.05071e-21)
(-0.240648 2.20661 -3.33366e-19)
(0.00105296 2.01668 -1.99412e-19)
(-0.114808 1.01951 0)
(-0.0850354 0.983516 0)
(0.132889 1.69587 -5.06438e-19)
(0.182687 1.48964 -5.27253e-19)
(0.163283 1.66021 6.58979e-19)
(0.105075 1.68175 0)
(-0.251239 2.13335 2.98534e-19)
(-0.206914 2.3032 -1.27498e-19)
(-0.239416 2.34352 4.52659e-20)
(-0.27028 2.1339 4.04534e-19)
(-0.257087 2.49396 1.0693e-19)
(-0.2502 2.52072 -4.68285e-19)
(1.02121 0.021211 -2.88659e-19)
(1.01808 0.0271751 2.91149e-19)
(1.01443 0.0190389 0)
(1.0149 0.0521818 4.18093e-19)
(0.996064 0.0422706 -4.92819e-19)
(0.962737 0.0243667 5.71477e-19)
(1.01383 0.0862722 -5.40207e-20)
(1.04142 -0.00683176 0)
(1.04719 -0.00530009 2.40249e-19)
(1.03716 -0.0117551 -2.40108e-19)
(1.06438 0.0365494 -1.31439e-20)
(1.05696 0.0153967 1.17586e-19)
(1.06214 0.0480858 0)
(1.05786 0.0398551 -4.40461e-20)
(1.0388 0.0331832 0)
(1.03367 0.0303316 0)
(1.02704 0.0124783 0)
(1.02465 0.015093 0)
(1.04547 0.0256916 9.1677e-20)
(1.0414 0.0181089 -2.0926e-19)
(1.05355 0.021227 -9.22899e-20)
(1.05196 0.0229449 -1.07317e-19)
(1.06836 0.0570748 1.90344e-19)
(1.08129 0.0507978 0)
(1.08844 0.0950511 0)
(-0.24858 2.10615 7.67497e-20)
(-0.198544 1.94901 3.27737e-21)
(-0.206373 1.97836 0)
(-0.14221 2.10498 -7.6681e-20)
(-0.0981766 2.00061 -3.98231e-21)
(-0.121352 2.04686 1.15304e-20)
(-0.201571 2.56351 -3.67785e-19)
(-0.216136 2.43447 1.94999e-20)
(-0.261625 2.47881 -9.99674e-20)
(-0.163632 2.44775 2.00345e-19)
(-0.17297 2.45916 -2.28653e-19)
(-0.362677 1.74757 -7.06933e-21)
(-0.317413 1.88115 -1.00807e-19)
(0.365175 1.40684 -4.13836e-19)
(0.362579 1.35198 -3.96779e-19)
(0.637183 1.41096 -5.96381e-19)
(0.507179 1.47495 -3.20268e-19)
(0.55544 1.45038 0)
(0.588276 2.40969 1.22513e-19)
(0.654974 2.39914 2.2305e-19)
(0.413598 2.50644 7.97451e-20)
(0.40736 2.55127 -1.60036e-19)
(0.51572 2.5088 2.64279e-19)
(0.545994 2.44967 0)
(0.489959 2.49688 -3.50106e-19)
(0.249347 2.58206 5.73634e-19)
(0.356438 2.55553 -8.00959e-20)
(0.28652 2.63991 -8.79561e-19)
(0.927121 2.38144 2.24242e-19)
(0.826084 2.37692 0)
(1.0105 0.000100939 9.80721e-21)
(1.01482 -0.00562827 -7.9806e-21)
(1.0177 -0.00379194 -1.44393e-19)
(1.01478 -0.000752548 1.44747e-19)
(1.01211 0.000914183 0)
(0.623561 1.28032 0)
(0.63541 1.15755 0)
(0.73505 1.06986 0)
(0.627483 1.12718 0)
(1.18478 2.63469 5.73843e-20)
(1.07335 2.37212 0)
(0.844514 2.2254 -1.79342e-21)
(0.826169 2.47934 0)
(0.920992 2.56517 2.65886e-20)
(0.957481 2.51847 -1.77468e-20)
(0.841908 0.147392 0)
(0.811594 0.138748 8.32553e-20)
(0.927031 0.123673 4.25828e-19)
(0.862036 0.116979 -1.70537e-19)
(0.845327 0.0643296 -5.12614e-19)
(1.04627 0.218155 -2.38432e-19)
(0.962222 0.272977 -1.56961e-20)
(0.90514 0.27189 3.87894e-19)
(0.979597 0.199545 2.85449e-19)
(0.939353 0.160071 -5.3538e-19)
(0.912594 0.169048 6.9425e-20)
(0.940416 0.232393 -1.34286e-19)
(0.9168 0.192086 0)
(0.976696 0.158003 2.56399e-19)
(1.02359 0.166214 0)
(1.01663 0.192146 0)
(1.0816 0.1108 7.99662e-20)
(1.04823 0.158997 -1.30667e-20)
(1.04069 0.221409 -4.49245e-20)
(1.076 0.193006 0)
(1.02764 0.0350416 2.18379e-19)
(1.04723 0.0479286 2.59264e-19)
(1.04137 0.0340229 -2.1772e-19)
(1.0472 0.0538462 -1.74616e-19)
(1.02447 0.0577469 -2.94177e-19)
(0.977889 0.127989 0)
(0.996164 0.0805121 0)
(0.969801 0.0428925 -2.07129e-19)
(0.93007 0.0594609 8.62512e-20)
(1.0346 0.086533 2.45371e-19)
(1.05266 0.111785 -2.46209e-19)
(1.05804 0.139084 2.25722e-19)
(1.02329 0.126865 0)
(1.06223 0.0997892 0)
(1.05049 0.0807933 -1.02579e-19)
(1.04516 0.0832222 -1.96279e-19)
(0.579923 1.0867 -9.54379e-20)
(0.618142 1.43529 1.97693e-19)
(1.15907 2.75567 1.03428e-19)
(1.22635 3.09404 -7.1047e-20)
(1.24991 2.73449 5.67102e-19)
(1.28219 2.71827 -3.4209e-19)
(1.20958 2.35626 -8.66159e-21)
(1.21265 2.99818 1.96029e-19)
(1.23083 2.9634 -2.17615e-19)
(1.21853 3.24776 -2.69071e-19)
(1.38061 2.98012 3.72505e-19)
(1.37331 2.89763 0)
(0.537757 0.853016 -1.32004e-20)
(0.154376 1.275 3.74919e-19)
(0.526024 0.492777 3.45053e-19)
(0.365161 0.259143 3.76233e-19)
(0.540041 0.404339 4.02662e-19)
(0.549643 0.487687 -6.23848e-19)
(0.551487 0.489664 5.1237e-19)
(0.507355 0.430355 -2.07689e-19)
(0.444969 0.367421 4.773e-19)
(0.774969 0.254543 -1.85306e-19)
(0.735573 0.288752 0)
(0.727954 0.22553 1.09006e-20)
(0.717603 0.519102 1.9015e-19)
(0.684201 0.488429 -7.02359e-19)
(0.609441 0.481001 1.7544e-20)
(0.621033 0.47164 0)
(0.671151 0.721476 1.49104e-19)
(0.805536 0.756153 5.7753e-20)
(0.731399 0.832432 -7.52603e-20)
(0.84709 0.792719 -1.62491e-20)
(0.877542 0.834335 1.44801e-20)
(0.886422 0.835021 -1.48266e-20)
(0.819055 0.636741 -2.20866e-19)
(0.896356 0.691995 1.51092e-20)
(0.949387 0.702513 0)
(0.939706 0.678219 -1.31401e-20)
(0.988799 0.313192 6.08153e-20)
(1.10574 0.286386 -2.33895e-22)
(1.0304 0.253281 9.74186e-20)
(0.96986 0.3454 -1.40544e-19)
(1.01622 0.408597 0)
(1.06908 0.398706 0)
(0.892446 0.353104 5.08066e-21)
(0.836245 0.285022 0)
(0.85315 0.27712 2.0027e-19)
(0.88835 0.279118 -6.00443e-21)
(0.909341 0.421962 7.60974e-19)
(0.868668 0.485956 1.92794e-19)
(0.870567 0.450514 -2.49755e-19)
(0.8012 0.437806 2.68006e-19)
(0.785656 0.439225 1.83309e-19)
(0.752973 0.423605 -1.79857e-19)
(1.02717 -0.000632719 2.30607e-19)
(1.01996 -0.000109337 0)
(1.01842 0.000975225 1.54254e-19)
(1.02205 -0.00184178 -3.47103e-19)
(1.02215 0.00395848 1.68448e-19)
(1.02036 0.010753 -3.53663e-19)
(1.02137 0.0102905 0)
(1.02103 0.0105747 -7.4736e-20)
(1.01582 0.00744305 1.87348e-19)
(1.01665 0.0100782 -9.39688e-20)
(1.01761 0.00922843 6.92978e-20)
(0.0925658 1.14435 0)
(0.196422 1.26076 0)
(0.0887165 1.23432 0)
(0.0755587 1.08957 0)
(0.0894959 1.38577 -7.04205e-19)
(0.088746 1.36022 2.23152e-19)
(0.100791 1.48621 1.60708e-19)
(0.0786862 1.37669 -1.84163e-19)
(0.160055 1.50336 4.64552e-19)
(0.145248 1.47585 -3.57435e-19)
(0.108291 1.36879 -2.09063e-20)
(0.148289 1.37919 4.67956e-19)
(0.166774 1.32096 7.04721e-20)
(0.184343 1.34098 6.35338e-20)
(0.0957112 2.37606 1.9913e-19)
(0.0953048 2.43113 0)
(0.169526 2.07216 -5.21974e-20)
(0.07321 1.72073 -1.21482e-19)
(0.227988 2.0625 3.09443e-20)
(0.217105 2.4533 0)
(0.270199 2.40614 -1.09267e-19)
(0.305882 2.40641 7.79725e-20)
(0.243763 2.00881 9.66217e-20)
(0.156577 2.18561 -1.49131e-21)
(0.141298 2.3124 0)
(0.0913031 1.94383 4.86891e-19)
(-0.0155641 2.46834 5.80038e-19)
(0.0508375 2.27713 0)
(0.0175851 2.46387 -2.37232e-20)
(0.0064473 2.3207 -2.24922e-19)
(-0.027375 1.30404 -8.75071e-20)
(-0.12361 1.24184 1.40418e-18)
(-0.149995 1.317 -3.44276e-19)
(-0.0535542 1.41983 -5.31993e-19)
(0.0717898 1.49886 0)
(-0.226741 1.20972 0)
(-0.232163 1.21434 -2.42704e-19)
(-0.292819 1.25813 7.79467e-20)
(-0.234256 1.21441 0)
(-0.168468 1.08859 -2.0747e-19)
(-0.142456 1.11088 3.81688e-19)
(1.0414 0.0070068 0)
(1.04456 0.00338191 -2.25143e-20)
(1.04162 0.0156415 -1.66478e-19)
(1.04986 0.01128 0)
(1.0498 0.00989795 0)
(1.03576 0.00745669 -6.2686e-21)
(1.03166 0.00910798 2.74279e-19)
(1.03163 0.0129684 3.31333e-19)
(1.0265 0.0186066 0)
(1.02459 0.0196527 0)
(1.03679 0.0203427 1.67453e-19)
(1.02886 0.0250312 0)
(1.02706 0.023577 0)
(-0.394607 2.14572 0)
(-0.370182 1.92038 -3.16184e-20)
(-0.388047 2.06996 -7.11835e-20)
(-0.315984 1.402 0)
(-0.431456 1.83828 -1.35064e-19)
(-0.384102 1.69028 3.36133e-20)
(-0.360645 1.48846 0)
(0.385401 1.69431 0)
(0.362588 1.28047 6.52026e-19)
(0.302206 1.3365 0)
(0.411757 1.2738 -8.4764e-19)
(0.458968 1.4418 0)
(0.437824 1.38843 3.96978e-19)
(1.02839 2.70516 -4.09968e-21)
(0.95178 2.41648 -2.83295e-19)
(0.891181 2.1729 3.22161e-19)
(0.8384 2.37079 1.18464e-19)
(0.844223 2.52014 0)
(0.9111 2.51406 0)
(0.906796 2.37516 0)
(0.894731 2.3511 -4.49099e-19)
(0.69012 2.49578 -8.29723e-21)
(0.800238 2.48782 -1.23387e-20)
(0.811228 2.46022 9.44828e-21)
(0.688119 2.37906 0)
(0.79112 2.37808 0)
(0.751859 2.38754 -2.26102e-19)
(0.769017 2.50678 0)
(0.587819 1.08883 0)
(0.487585 0.943246 1.0464e-21)
(0.542197 0.970835 -1.27439e-21)
(0.516329 1.06649 0)
(0.518797 1.02338 1.14062e-21)
(0.753811 0.852831 1.41866e-20)
(0.762203 0.996962 0)
(0.73711 0.953906 -6.48162e-20)
(0.61654 1.0203 0)
(0.626594 0.935955 0)
(1.1633 2.77614 5.7675e-20)
(1.14164 2.84033 1.24835e-19)
(0.934644 2.3672 -2.85244e-19)
(0.901179 2.34228 3.62096e-20)
(1.1266 2.74844 0)
(1.07809 2.71903 -4.33616e-20)
(1.08401 2.49615 -7.63826e-20)
(0.980664 2.23291 -2.95398e-20)
(0.495241 1.37083 0)
(0.504253 1.07576 8.41436e-20)
(0.542359 1.15011 0)
(0.859078 0.218075 0)
(0.819795 0.170735 0)
(0.776571 0.160506 0)
(0.850045 0.223999 -3.14974e-19)
(0.79418 0.22287 1.94846e-19)
(0.938629 0.0505521 -1.77083e-19)
(0.952836 0.099292 0)
(0.925345 0.104541 7.9413e-20)
(0.886413 0.0813904 3.25498e-19)
(0.872621 0.0460977 -1.99714e-19)
(1.16818 3.37292 -9.82732e-19)
(1.2145 3.29236 0)
(1.16757 3.39954 -1.93217e-18)
(0.65404 3.55948 1.65937e-18)
(0.882216 3.12459 3.7486e-19)
(0.516482 0.881177 2.35012e-19)
(0.440215 0.875267 0)
(0.357843 0.526344 -8.46045e-20)
(0.458127 0.690015 3.87291e-19)
(0.532474 0.492489 -1.11244e-19)
(0.513099 0.5267 1.30702e-19)
(0.655356 0.533829 2.65866e-19)
(0.683118 0.556248 0)
(0.643415 0.615997 0)
(0.595299 0.553858 0)
(0.947733 0.584305 -5.46625e-20)
(0.872158 0.53164 -1.86322e-19)
(0.898879 0.565434 8.57649e-20)
(0.926818 0.501772 -1.36436e-19)
(1.03063 0.465242 0)
(1.0427 0.554548 -4.63166e-21)
(0.826688 0.389483 -4.04118e-19)
(0.831786 0.372601 -4.65565e-19)
(0.782119 0.388662 3.17158e-19)
(0.775362 0.354404 -3.59903e-19)
(0.831428 0.306024 -2.65583e-19)
(0.785584 0.307048 3.26727e-19)
(1.02616 0.0055733 -1.78629e-19)
(1.02594 0.00591744 3.66194e-19)
(1.02983 -0.000955526 2.18184e-19)
(1.03312 0.000984026 -2.66408e-19)
(1.03338 0.00633863 0)
(1.02994 0.00685221 -4.28904e-19)
(0.0641172 1.67609 -6.31797e-20)
(0.0836893 1.60213 0)
(0.0646195 1.70451 -5.19229e-19)
(0.0678804 1.68119 4.77108e-19)
(0.0882462 1.50702 -2.92682e-19)
(0.120452 1.51033 0)
(-0.377831 2.12806 0)
(-0.347692 1.68723 1.06947e-19)
(-0.443394 1.65854 -9.72898e-20)
(-0.416011 1.8466 -4.15571e-20)
(-0.384037 2.17266 1.5587e-19)
(-0.379026 2.19261 -9.44911e-20)
(0.490098 1.38085 4.256e-19)
(0.482161 1.38627 -4.57236e-19)
(0.430651 1.27223 4.2458e-19)
(0.421829 1.29444 -2.6179e-20)
(0.612034 1.27785 0)
(0.533746 1.37556 5.40052e-19)
(0.551317 1.38853 -5.25482e-19)
(0.439529 1.25846 -4.10302e-19)
(0.491272 1.21353 0)
(0.547556 1.18005 0)
(0.655224 2.45288 1.21906e-20)
(0.667314 2.47617 5.23121e-19)
(0.716637 2.49351 -3.60094e-19)
(0.624101 2.47598 -1.19283e-19)
(0.559869 2.57084 9.83588e-20)
(0.513387 2.54327 -2.96703e-19)
(0.964852 2.37659 -1.73055e-19)
(1.00818 2.39822 0)
(0.906169 2.14996 -2.42599e-19)
(1.04641 2.69956 0)
(1.04816 2.68667 0)
(0.626438 2.28874 2.36749e-19)
(1.04825 3.17345 4.81063e-19)
(0.919313 3.04207 -4.25511e-19)
(0.29227 0.953648 0)
(0.344052 0.823745 -1.58112e-19)
(0.499528 0.779219 -7.55553e-20)
(0.40454 2.03572 0)
(0.471729 2.79002 -2.6093e-19)
(0.432909 2.55488 0)
(0.682633 0.66729 -3.09144e-19)
(0.753019 0.663924 3.9249e-19)
(0.775089 0.615812 -3.83141e-19)
(0.671201 0.641622 -4.60244e-20)
(0.717632 0.593585 -1.88069e-19)
(1.00856 2.77974 -3.65726e-19)
(1.04164 2.83492 2.8758e-19)
(0.651935 2.18265 5.95462e-20)
(0.609447 1.73674 -7.29122e-20)
(0.704635 1.92575 1.12102e-19)
(0.992852 2.46264 -6.80438e-20)
(0.995469 2.45991 -1.63788e-19)
(0.67551 1.87174 -5.17796e-21)
(0.461475 1.35322 -7.91648e-20)
)
;

boundaryField
{
    wall-4
    {
        type            noSlip;
    }
    velocity-inlet-5
    {
        type            fixedValue;
        value           uniform (1 0 0);
    }
    velocity-inlet-6
    {
        type            fixedValue;
        value           uniform (0 3 0);
    }
    pressure-outlet-7
    {
        type            zeroGradient;
    }
    wall-8
    {
        type            noSlip;
    }
    frontAndBackPlanes
    {
        type            empty;
    }
}


// ************************************************************************* //
