/*--------------------------------*- C++ -*----------------------------------*\
| =========                 |                                                 |
| \\      /  F ield         | OpenFOAM: The Open Source CFD Toolbox           |
|  \\    /   O peration     | Version:  4.0                                   |
|   \\  /    A nd           | Web:      www.OpenFOAM.org                      |
|    \\/     M anipulation  |                                                 |
\*---------------------------------------------------------------------------*/
FoamFile
{
    version     2.0;
    format      ascii;
    class       volScalarField;
    location    "62";
    object      p;
}
// * * * * * * * * * * * * * * * * * * * * * * * * * * * * * * * * * * * * * //

dimensions      [0 2 -2 0 0 0 0];

internalField   nonuniform List<scalar> 
918
(
0.556971
1.18542
0.00120036
0.556406
-0.0125986
1.15244
-0.50895
0.670777
0.537164
-0.111069
-0.0459094
0.537723
1.01297
0.778751
-1.12417
-0.0100626
0.65184
-0.381579
0.536268
-0.0561924
0.69772
0.543709
0.546735
0.537314
0.599501
0.754602
0.893812
0.0220339
0.00913339
0.00469372
-0.0119285
-0.0391231
-0.033043
1.0361
1.08717
1.10985
0.504977
0.332763
-0.374185
-0.446507
-0.435266
-0.546676
0.666776
0.664915
-0.207741
0.674254
0.677319
0.524209
0.536532
0.537443
0.53847
0.537451
0.538832
0.404302
-0.111959
-0.143444
-0.0922523
-0.0840269
0.0541991
-0.0473664
-0.0493075
-0.0443183
-0.043937
0.454197
0.532235
0.529048
0.542704
0.553382
1.12497
1.09691
1.12304
1.03662
1.05317
0.990986
0.963616
0.799716
0.821229
0.763143
0.751552
-1.55623
-2.50847
-0.533975
-0.283231
-0.0105768
-0.00737938
-0.00136002
0.64858
0.64956
0.651371
0.65434
1.08041
-0.378715
-0.479647
0.536408
0.535217
0.543543
0.544243
0.540263
0.539353
-0.0474098
-0.0442845
-0.0473815
-0.0527046
-0.0513434
0.686441
0.686908
0.537844
0.534849
0.560607
0.580817
0.571221
0.278373
0.608435
0.624345
0.584953
0.748462
0.741
0.750535
0.867375
0.830483
0.931106
0.95433
0.0165645
3.78945e-05
-0.0149561
-0.0194993
-0.0182535
0.500815
0.493365
0.520706
0.508406
0.510909
0.249352
0.115808
0.417816
0.442752
-0.292599
-0.358
-0.429408
-0.459282
-0.567299
0.611773
0.661859
0.659593
-0.218863
-0.146807
-0.279378
-0.0736064
-0.136301
0.514482
0.521489
0.516491
0.532034
0.526503
0.528465
0.540801
0.537873
0.539431
0.466586
0.590311
0.330406
0.295062
-0.243997
-0.158345
-0.244531
-0.0721987
-0.0672413
0.0680883
0.0935456
0.0411621
0.0294953
-0.0609218
-0.0525021
-0.0566724
-0.0429902
-0.0437863
0.446969
0.435795
0.466882
0.474434
0.519311
0.520775
0.525414
0.523282
0.914503
0.936776
0.944326
0.918207
-3.49891
-6.28214
0.0418054
0.178473
-0.00676724
-0.00925715
0.00206581
-0.00563602
0.00044361
-0.001861
-0.00616471
-0.00758591
-0.00253284
-0.00128189
0.642395
0.643421
1.00234
1.00883
0.978328
0.931072
0.524615
0.526689
0.532191
0.528072
-0.042836
-0.0435152
-0.0422308
0.680415
0.685144
0.683227
0.240029
0.150624
0.32928
0.358306
0.635946
0.624772
0.634501
0.644879
0.680622
0.961691
0.979863
0.978191
0.986563
1.03068
1.04715
1.01235
0.480263
0.490245
0.485193
0.523806
0.521584
0.522484
0.518346
0.519635
0.517614
-0.0347793
-0.414995
0.49035
0.507412
0.49233
0.495069
0.691952
0.770572
0.654286
0.657234
0.65642
-0.00490758
-0.0632822
0.250445
0.216556
0.386643
0.422977
0.401984
0.885556
0.846202
0.896195
0.869621
0.831041
0.856744
-0.366533
-1.86707
-0.985593
0.527892
0.342249
0.429131
0.0113247
-0.00556113
-0.00103779
1.00165
1.07426
0.646142
0.820914
0.823767
0.718291
0.748827
0.803446
0.729303
0.763899
0.798701
0.78055
0.567857
0.503506
0.519453
0.839788
0.895573
0.120893
0.0599903
0.0159852
0.112215
0.169412
0.143536
1.0345
0.949476
1.01977
0.534608
0.535327
-0.00458834
-0.0181555
0.539563
0.539617
-0.0119556
-0.00115755
0.412679
-0.832076
0.101526
0.528135
0.518068
0.53518
-0.09458
0.355756
-0.0471786
0.0489402
-0.00700336
0.53097
0.46532
0.424454
0.00158923
-0.0184733
-0.0475652
-0.213898
0.532279
0.530584
0.534648
0.535594
0.536272
-0.017688
-0.0132016
-0.00980942
-0.0449164
-0.0394385
-0.0501004
0.499145
0.518188
-0.169832
0.534795
0.536927
0.536747
0.530001
0.535634
0.533884
-0.0093369
-0.0148558
-0.0172315
0.220828
0.351864
0.652511
0.740403
0.623474
0.399726
0.164732
0.555893
0.61932
0.524837
0.678682
0.657934
0.671448
0.167124
0.0169192
0.17554
0.117082
0.525996
0.524707
0.516324
0.513292
0.530048
0.528161
0.53272
0.529738
0.532688
0.534071
-0.0509011
-0.0782404
-0.0877671
-0.156182
0.310496
0.571958
0.253945
0.284033
0.142353
-0.0411996
-0.0409141
-0.0456422
-0.0523589
0.00179813
-0.0220514
0.0438359
0.0443603
0.016444
-0.0095692
-0.00606418
-0.0169603
-0.0125907
0.524722
0.524436
0.527982
0.536632
0.474958
0.478732
0.44361
0.464355
0.449632
0.388461
0.423659
0.39892
-0.00441049
0.00440941
-0.00159748
-0.0161112
-0.0128992
-0.0317707
-0.0285294
-0.0246319
-0.0203811
-0.0269364
-0.0420464
-0.043995
-0.171632
-0.286964
0.988865
0.910481
0.136726
0.521433
0.527885
0.524648
0.52956
0.532687
0.533493
0.531206
0.527756
0.518504
0.520013
0.516892
0.517854
-0.101524
-0.242271
-0.0704249
-0.144069
0.14436
0.627244
0.363759
0.299658
0.29478
0.522814
0.917464
0.701575
0.675913
0.68345
-0.342596
0.0469404
-0.278862
0.336687
0.163845
0.652084
0.70151
0.723866
0.671277
0.624116
-0.10249
0.555701
-0.0706887
-0.0190379
0.182017
0.0592993
0.669067
0.644531
0.649581
0.663544
0.679335
0.64966
0.635748
0.631191
0.658413
0.660286
0.486661
0.251637
0.202905
0.164365
0.64203
0.521209
0.5736
0.492235
0.52121
0.523804
0.522443
0.503973
0.511552
0.507077
0.513644
0.517151
0.525765
0.526225
0.521511
0.523642
-0.057137
-0.0617805
-0.0294993
-0.136824
-0.130608
-0.192784
-0.0622244
0.0758919
0.0366187
0.237395
0.341773
0.0528251
-0.057908
-0.0305347
0.0116998
0.18037
0.20804
0.0744649
0.162514
0.152892
0.134868
0.23726
0.241025
-0.0260104
-0.0292977
-0.033018
-0.0348416
0.0198894
0.0904976
0.100213
-0.00403962
-0.0101397
-0.0389793
-0.0399196
-0.0214768
-0.0267455
-0.0223251
0.00830665
-0.0516804
-0.0187454
-0.00462299
-0.000981175
-0.00303783
-0.00865828
0.518056
0.520522
0.520194
0.526279
0.540728
0.555494
0.519822
0.497147
0.487938
0.490955
0.463821
0.474163
0.469824
0.483537
0.504659
0.514201
0.511772
0.514616
0.496796
0.498576
0.485064
0.48876
0.463599
0.444432
0.432561
-0.0411597
-0.00211383
-0.0102303
-0.0364883
-0.00650497
-0.0187002
-0.00903992
0.00998174
-0.00620189
-0.00796702
-0.018427
-0.0245711
-0.0238551
-0.0734963
0.0129995
-0.183661
-0.21949
-0.292078
0.890872
1.01493
0.810583
0.583688
0.603598
0.846714
0.931393
0.543705
0.735953
0.759169
0.586628
0.854157
0.526272
0.525873
0.523473
0.522954
0.524171
-0.0067869
0.0989004
0.0984117
0.160769
0.276161
0.387972
0.318467
0.193911
0.324237
0.326748
0.620452
0.632394
0.58761
0.61135
0.611762
0.42558
0.501126
0.553179
0.512624
0.565113
0.58636
0.540606
0.573272
0.523404
0.478473
0.474422
0.424769
0.444388
0.420279
0.403322
0.515052
0.493121
0.503447
0.494105
0.513507
0.541327
0.53792
0.561975
0.576783
0.497933
0.452961
0.462353
0.492591
0.453635
0.468945
0.485415
0.231337
0.133074
0.216141
-0.0699946
0.0021794
-0.0107789
-0.0592353
-0.00866753
0.275792
-0.416073
-0.392287
-1.02004
0.502245
0.953559
0.606647
0.579924
0.677805
0.660729
0.666117
0.682502
0.684613
0.630528
0.641139
0.645683
0.604764
0.626247
0.6452
0.64176
0.52503
0.385128
0.383309
0.332444
0.202611
0.241976
0.439229
0.362902
0.287813
0.288203
0.457605
0.344433
0.41409
0.448215
0.379723
0.334171
0.536931
0.602321
0.595687
0.569442
0.482067
0.495048
0.518974
0.553063
0.577885
0.608287
0.513055
0.51898
0.520212
0.517688
0.514968
0.51803
0.518278
0.520825
0.521467
0.52446
0.52351
-0.0472302
-0.0345749
-0.0480752
-0.0568195
-0.0201324
-0.0225179
0.0220355
0.0067059
-0.013479
-0.00807725
-0.0318697
-0.036312
-0.032175
-0.0235956
0.100211
0.112995
0.0967346
0.0569566
0.251
0.380481
0.454986
0.330247
0.223544
0.246597
0.266338
-0.0120737
0.0139039
0.000860788
0.0403982
0.0323849
-0.0340622
-0.0376885
-0.0351437
-0.0281935
-0.0188031
-0.0353713
-0.0395679
-0.0304501
-0.0355074
-0.0383447
-0.0424837
0.499409
0.492865
0.494577
0.488373
0.487091
0.501548
0.505818
0.507791
0.51333
0.515776
0.505625
0.511389
0.515427
-0.00957446
-0.0326009
-0.0364117
-0.0259693
-0.02862
-0.0265896
-0.0279642
0.123524
0.0539517
0.0582939
0.0102783
-0.121344
-0.0635063
0.491205
0.489974
0.47952
0.720806
0.570108
0.490619
0.587607
0.693359
0.275989
0.472821
0.307743
0.888482
0.784753
0.931163
0.542333
0.244709
0.407139
0.451097
0.263579
0.338844
0.325708
0.21479
0.245631
0.282764
0.38191
0.264804
0.241345
-0.00167264
0.188682
0.300998
0.282824
0.40761
0.46843
0.265667
0.185122
0.140368
0.605228
0.624738
0.63851
0.610947
0.631929
0.579473
0.570995
0.586872
0.595203
0.589618
-0.748232
-0.454841
-1.40109
-0.722589
-0.268149
0.532605
0.503125
0.768986
0.647008
0.686823
0.672054
0.630926
0.60014
0.622594
0.64668
0.34383
0.454692
0.429934
0.435263
0.337445
0.268114
0.566039
0.562394
0.594718
0.61789
0.590425
0.619602
0.510888
0.510613
0.510065
0.50631
0.504583
0.506956
0.0576708
0.0255336
0.0635815
0.0446775
0.0214291
0.00870796
-0.0066609
-0.016616
-0.0238817
-0.0237557
-0.00983318
-0.0057691
0.171109
0.109036
0.0293018
0.0587175
-0.0020261
-0.070821
-0.0895514
0.0152645
0.111592
0.10175
0.405371
0.655159
0.475139
0.642649
0.485052
0.540836
0.468069
0.45946
0.484595
0.379126
0.459648
0.245527
-0.26186
-0.170922
0.792432
0.804327
0.580754
0.404227
0.172732
0.352464
0.543196
0.474146
0.510018
0.579126
0.566964
0.0258576
0.0849064
0.367584
0.594511
0.238975
0.230152
0.2238
0.406507
0.325682
)
;

boundaryField
{
    wall-4
    {
        type            zeroGradient;
    }
    velocity-inlet-5
    {
        type            zeroGradient;
    }
    velocity-inlet-6
    {
        type            zeroGradient;
    }
    pressure-outlet-7
    {
        type            fixedValue;
        value           uniform 0;
    }
    wall-8
    {
        type            zeroGradient;
    }
    frontAndBackPlanes
    {
        type            empty;
    }
}


// ************************************************************************* //
