/*--------------------------------*- C++ -*----------------------------------*\
| =========                 |                                                 |
| \\      /  F ield         | OpenFOAM: The Open Source CFD Toolbox           |
|  \\    /   O peration     | Version:  4.0                                   |
|   \\  /    A nd           | Web:      www.OpenFOAM.org                      |
|    \\/     M anipulation  |                                                 |
\*---------------------------------------------------------------------------*/
FoamFile
{
    version     2.0;
    format      ascii;
    class       volScalarField;
    location    "21";
    object      p;
}
// * * * * * * * * * * * * * * * * * * * * * * * * * * * * * * * * * * * * * //

dimensions      [0 2 -2 0 0 0 0];

internalField   nonuniform List<scalar> 
918
(
0.218134
0.900373
0.0103762
0.217176
-0.00193003
0.867455
-0.844721
0.393677
0.198199
-0.473233
-0.150113
0.187782
0.728157
0.49513
-1.4735
-0.0050123
0.350051
-0.728921
0.196898
-0.00438244
0.46834
0.204888
0.2079
0.198469
0.258193
0.482949
0.608969
0.00234857
-0.000742508
-0.00423783
0.00436114
-0.0101524
-0.0076858
0.751076
0.802187
0.824857
0.166959
-0.00733194
-0.695285
-0.771352
-0.756343
-0.894174
0.383052
0.387965
-0.499029
0.395737
0.411343
0.185742
0.197467
0.198302
0.19968
0.198535
0.199955
0.15677
-0.466158
-0.490707
-0.469125
-0.473154
-0.173856
-0.202146
-0.257397
-0.115288
-0.0876144
0.123194
0.184734
0.182613
0.192606
0.202429
0.839922
0.811806
0.837942
0.751772
0.768197
0.706087
0.678562
0.515005
0.536715
0.481319
0.468462
-1.91763
-2.89223
-0.870741
-0.611397
0.00058681
-0.00854471
-0.0101073
0.336405
0.343189
0.347855
0.361989
0.747127
-0.718918
-0.863769
0.197084
0.195799
0.204325
0.205011
0.200998
0.200115
0.00540947
0.00574027
-0.0153213
-0.00188243
-0.00731347
0.452079
0.445669
0.199021
0.196081
0.210296
0.232627
0.221511
-0.0335812
0.268449
0.289447
0.291285
0.464554
0.463307
0.470399
0.582567
0.545968
0.646007
0.669322
0.0125841
0.00371748
-0.0121207
-0.00861818
-0.0117878
0.163246
0.156435
0.180449
0.170571
0.172863
-0.0911658
-0.226604
0.0764598
0.0997662
-0.602507
-0.670196
-0.777682
-0.79222
-0.90179
0.217673
0.373356
0.375961
-0.517154
-0.43314
-0.5787
-0.35809
-0.428136
0.176383
0.183052
0.178219
0.193286
0.187966
0.189863
0.201619
0.198704
0.200297
0.198137
0.319472
0.0905066
0.0603508
-0.588745
-0.490581
-0.574617
-0.475108
-0.44399
-0.15107
-0.152067
-0.174764
-0.125872
-0.419737
-0.321107
-0.36954
-0.0589371
-0.041417
0.115927
0.107081
0.133426
0.139378
0.176784
0.177479
0.180407
0.178395
0.629236
0.65173
0.659177
0.632773
-3.90558
-6.73305
-0.276941
-0.133587
0.00153782
0.00322647
0.00255057
0.00596889
0.00243131
0.000149146
-0.0566923
-0.041701
-0.014433
-0.0228206
0.32361
0.327032
0.663254
0.658975
0.650719
0.612579
0.185132
0.187232
0.192679
0.188567
-0.0186851
0.00136084
-0.00874091
0.413241
0.432234
0.428737
-0.0689281
-0.155564
0.0128442
0.0398321
0.31
0.294021
0.310897
0.355861
0.393211
0.676796
0.695113
0.693344
0.70173
0.745674
0.762004
0.727455
0.144006
0.153387
0.148668
0.184134
0.181617
0.182785
0.177255
0.179298
0.176424
-0.380539
-0.7679
0.16683
0.181912
0.142691
0.151167
0.293923
0.373752
0.358137
0.364944
0.369558
-0.294179
-0.358506
0.0112209
-0.0359934
0.0651838
0.0963738
0.0803491
0.600531
0.560638
0.610708
0.584125
0.545338
0.571729
-0.719804
-2.25111
-1.35184
0.231608
0.0371053
0.128798
-0.0963528
-0.098679
-0.082345
0.641259
0.719371
0.35521
0.509322
0.532622
0.431248
0.462155
0.519878
0.444041
0.4797
0.51525
0.494274
0.181323
0.171167
0.156809
0.45449
0.509986
-0.181795
-0.232108
-0.285822
-0.137572
-0.0610606
-0.0940899
0.690384
0.574417
0.653092
0.19589
0.196554
0.00987498
0.0139001
0.200388
0.20033
0.00576717
0.000596695
0.108812
-1.18524
-0.191718
0.188624
0.179501
0.196112
-0.436151
0.0802999
-0.208754
-0.18341
0.0302105
0.186242
0.132833
0.099731
0.00586599
0.00389449
-0.012312
-0.530567
0.193511
0.191836
0.195653
0.196683
0.197347
0.00497827
0.00584819
0.00451184
-0.00595659
0.000716859
-0.00198706
0.161647
0.176583
-0.492875
0.195656
0.197863
0.197566
0.190518
0.196248
0.1945
0.00663296
0.0016666
-0.00667159
-0.0821751
0.0325481
0.365472
0.472668
0.320289
0.0911346
-0.153816
0.261154
0.329771
0.227253
0.393645
0.360457
0.382436
-0.131756
-0.277551
-0.121553
-0.176682
0.186621
0.185305
0.177695
0.174935
0.191259
0.189387
0.193618
0.190499
0.193417
0.195024
-0.443312
-0.451508
-0.424256
-0.477313
0.0314678
0.283734
-0.0477416
0.0423557
-0.144225
-0.169651
-0.122178
-0.292529
-0.336654
-0.362672
-0.0365243
-0.140159
-0.205757
0.0491655
-0.0609068
-0.258424
-0.119291
-0.203977
0.180647
0.177959
0.186471
0.193121
0.140706
0.142386
0.115181
0.131447
0.119117
0.0643357
0.097438
0.0751707
0.00688888
0.00780601
0.00493856
0.00736255
0.00171378
0.00534139
0.00740845
0.0108733
6.09416e-05
0.00136544
-0.0127488
-0.00385633
-0.50156
-0.611781
0.640082
0.60267
-0.208464
0.182724
0.189151
0.185955
0.190873
0.193762
0.194506
0.192303
0.189031
0.177572
0.179583
0.175335
0.176124
-0.435676
-0.569988
-0.392883
-0.456056
-0.200688
0.30053
0.0451957
-0.0139632
-0.0178668
0.191907
0.586915
0.395309
0.424713
0.451529
-0.683948
-0.280766
-0.613406
0.00489247
-0.176358
0.36473
0.416133
0.438033
0.384869
0.334182
-0.454668
0.194506
-0.37369
-0.331707
-0.143885
-0.242749
0.410997
0.344679
0.350052
0.373194
0.39675
0.349995
0.328415
0.325842
0.363459
0.367561
0.165847
-0.0500425
-0.0957157
-0.13158
0.332905
0.205048
0.259169
0.178271
0.181373
0.184269
0.182775
0.166311
0.173251
0.169119
0.174531
0.177243
0.18681
0.186825
0.182454
0.184628
-0.448214
-0.464201
-0.41086
-0.456312
-0.472147
-0.51417
-0.420615
-0.224185
-0.285336
-0.0644197
0.0228316
-0.256134
-0.40711
-0.368272
-0.354996
-0.122464
-0.0922267
-0.438286
-0.173067
-0.266224
-0.320313
-0.0687829
-0.0514811
-0.328258
-0.411102
-0.443309
-0.346164
-0.214167
-0.195678
-0.216459
-0.0800359
-0.161745
-0.0992021
-0.054515
-0.500958
-0.501864
-0.48691
-0.500413
0.00689412
0.00479982
0.00244983
-0.0236434
-0.0130651
-0.0168739
0.175746
0.175752
0.175722
0.189402
0.201361
0.216649
0.182687
0.159871
0.152473
0.154513
0.130662
0.138906
0.135515
0.14761
0.165389
0.173099
0.172355
0.174409
0.158909
0.159466
0.149244
0.153006
0.13145
0.114475
0.104632
0.00734691
0.00566449
0.00522987
0.00373908
0.0102985
0.00916613
-0.0025586
0.0066368
0.000781258
0.00375475
-0.0190892
0.0121734
0.00709782
-0.423677
-0.353946
-0.520947
-0.553695
-0.621458
0.554023
0.663843
0.491254
0.275355
0.274247
0.497114
0.592513
0.258078
0.424848
0.458369
0.195968
0.481142
0.187578
0.18684
0.184274
0.183907
0.185231
-0.34589
-0.249541
-0.236739
-0.185755
-0.0711855
0.0426916
-0.0434621
-0.165967
-0.0260355
-0.0103594
0.295294
0.310224
0.254133
0.280273
0.280487
0.10659
0.181448
0.235315
0.19237
0.234174
0.256017
0.218344
0.247735
0.194626
0.154347
0.153565
0.10114
0.120807
0.0987421
0.0818203
0.177073
0.156755
0.165363
0.159133
0.177804
0.205596
0.200498
0.223941
0.237101
0.164029
0.126791
0.134949
0.1613
0.126167
0.138504
0.152421
-0.138967
-0.237515
-0.148237
-0.441721
-0.347557
-0.363572
-0.408977
-0.374523
-0.0879358
-0.792141
-0.7569
-1.39526
0.129906
0.616882
0.365002
0.337299
0.39476
0.371257
0.37505
0.407963
0.413435
0.323353
0.336136
0.343038
0.29222
0.316951
0.348112
0.343858
0.175058
0.057198
0.0459198
0.0120518
-0.107628
-0.0779872
0.122478
0.0463502
-0.024919
-0.0182381
0.141588
0.0358519
0.0975855
0.135436
0.0681169
0.0274925
0.222028
0.290517
0.280943
0.253427
0.168891
0.181121
0.205781
0.242251
0.267755
0.301783
0.174288
0.179857
0.181115
0.178773
0.176292
0.178815
0.178735
0.181338
0.182265
0.184935
0.183998
-0.409028
-0.455927
-0.478808
-0.436468
-0.4869
-0.456327
-0.334401
-0.381242
-0.535659
-0.549541
-0.499937
-0.479054
-0.480778
-0.491169
-0.275867
-0.252605
-0.219391
-0.288999
-0.0485865
0.0910829
0.143882
0.0203856
-0.0617147
-0.0452053
-0.0140928
-0.493086
-0.311106
-0.391809
-0.326292
-0.449046
-0.162193
-0.130194
-0.145059
-0.17938
-0.217565
-0.0905874
-0.00847656
-0.0242769
-0.0405338
-0.0248764
-0.0117679
0.16403
0.157997
0.155366
0.151462
0.150784
0.161073
0.165889
0.168512
0.174115
0.174747
0.165942
0.170206
0.17319
0.00713366
0.0070351
0.0113965
-0.0140776
0.000777656
0.00651929
-0.00454591
-0.229765
-0.295813
-0.299495
-0.336191
-0.464256
-0.407762
0.133299
0.113188
0.140216
0.345505
0.196416
0.110786
0.197235
0.302319
-0.0752239
0.114444
-0.0478315
0.53273
0.415952
0.560377
0.183249
-0.114129
0.0291231
0.0844644
-0.11186
-0.0391718
-0.0144746
-0.125351
-0.0914657
-0.0638687
0.0357386
-0.0871864
-0.118799
-0.362337
-0.177559
-0.0473094
-0.0676388
0.0599674
0.121428
-0.100898
-0.183972
-0.222674
0.284302
0.303248
0.320258
0.292486
0.316692
0.240643
0.232478
0.250831
0.261781
0.25485
-1.12714
-0.838515
-1.77867
-1.08806
-0.643503
0.159051
0.115527
0.406883
0.30076
0.38217
0.365056
0.323234
0.285437
0.294733
0.332968
0.034999
0.141042
0.115606
0.124132
0.0294238
-0.0354585
0.25649
0.251348
0.286726
0.310181
0.280184
0.311696
0.172433
0.171961
0.171684
0.168722
0.167084
0.168567
-0.404318
-0.473253
-0.311636
-0.326559
-0.386643
-0.452385
0.0159012
-0.0176785
-0.0166167
-0.00910005
0.019332
-0.00123912
-0.192979
-0.251375
-0.318137
-0.294685
-0.348438
-0.414547
-0.434165
-0.330714
-0.238043
-0.248932
0.0517233
0.304898
0.126883
0.298794
0.132736
0.193407
0.138903
0.127187
0.162902
0.0313465
0.109638
-0.154946
-0.651017
-0.559737
0.417457
0.439796
0.221425
0.0265812
-0.19661
0.00166985
0.203673
0.144368
0.184576
0.250562
0.244659
-0.360511
-0.284062
-0.0552554
0.171744
-0.132704
-0.137643
-0.142848
0.0208957
-0.0463511
)
;

boundaryField
{
    wall-4
    {
        type            zeroGradient;
    }
    velocity-inlet-5
    {
        type            zeroGradient;
    }
    velocity-inlet-6
    {
        type            zeroGradient;
    }
    pressure-outlet-7
    {
        type            fixedValue;
        value           uniform 0;
    }
    wall-8
    {
        type            zeroGradient;
    }
    frontAndBackPlanes
    {
        type            empty;
    }
}


// ************************************************************************* //
