/*--------------------------------*- C++ -*----------------------------------*\
| =========                 |                                                 |
| \\      /  F ield         | OpenFOAM: The Open Source CFD Toolbox           |
|  \\    /   O peration     | Version:  4.0                                   |
|   \\  /    A nd           | Web:      www.OpenFOAM.org                      |
|    \\/     M anipulation  |                                                 |
\*---------------------------------------------------------------------------*/
FoamFile
{
    version     2.0;
    format      ascii;
    class       surfaceScalarField;
    location    "21";
    object      phi;
}
// * * * * * * * * * * * * * * * * * * * * * * * * * * * * * * * * * * * * * //

dimensions      [0 3 -1 0 0 0 0];

internalField   nonuniform List<scalar> 
1300
(
3.75095
5.62643
-5.94095
3.75095
-5.84638
5.62643
-4.54346
4.54346
-1.22284
1.22284
1.87669
1.87426
-2.78824
2.78824
-3.44057
3.44057
-2.63497
2.63497
-5.2464
5.2464
-5.06762
5.06762
4.68328
-4.68328
-4.72666
4.72666
-1.69308
1.69308
-3.88858
3.88858
3.17024
-3.17024
-4.50678
4.50678
-0.423367
0.423367
-0.553411
4.30436
3.19754
3.19754
-2.33533
2.33533
-4.85478
4.85478
6.2182
-6.2182
8.98093
-8.98093
-3.03998
-3.43881
1.33754
-8.28266
-4.50884
-4.50884
-8.44042
8.44042
-2.81399
2.81244
2.94322
-2.94322
-1.76179
1.76179
-4.47979
-0.0636624
-4.47979
4.54356
-0.000106869
4.54356
-1.35431
0.13147
-1.35431
4.00285
-4.00285
1.07012
0.152722
1.07012
3.06417
-3.06417
-1.8769
3.7536
1.87405
-1.87162
6.17599
-1.87933
3.75359
-5.87242
5.87242
-3.10248
0.314246
-3.10248
2.55054
0.237697
2.55054
-5.23937
5.23937
-2.97096
-0.469611
-2.97096
3.84148
-0.400908
3.84148
2.87034
-2.87034
-2.67558
0.0406055
-2.67558
2.58372
0.0512533
2.58372
0.353581
5.27285
-5.98001
8.79245
-5.27285
0.0264484
5.20848
0.0379194
5.20848
-5.10592
0.038296
-5.10592
5.01087
0.0567532
5.01087
4.7782
-0.0949157
4.7782
-4.79544
0.11216
-4.79544
-3.33003
-3.51835
-4.82539
0.0987305
-4.82539
-1.68388
-0.0091998
-1.68388
1.67408
0.0189987
1.67408
-3.48783
3.48783
-4.28519
0.396606
-4.28519
3.12522
0.0450198
3.12522
1.86856
1.88239
5.61952
-5.61952
2.44928
-4.42304
-0.0837384
-4.42304
-4.6108
-4.37013
4.6108
-0.104021
-0.711624
0.288257
-0.711624
3.15936
0.0381832
3.15936
2.50038
0.0833387
-2.50038
0.165054
3.32741
-3.32741
1.7082
0.627125
1.7082
-5.571
5.571
4.9499
0.0609645
-4.9499
0.0951262
6.15679
0.0614178
6.15679
-6.19956
-0.0186414
-6.19956
3.31566
-6.75447
-3.47725
4.6125
0.114154
-4.6125
0.103664
2.90993
0.0332857
2.90993
-2.92328
2.92328
-2.98154
0.038321
-2.98154
-2.17751
0.415721
-2.17751
1.44345
0.318343
1.44345
-4.33794
-0.141851
-4.33794
-4.46081
0.175624
4.46081
0.0827524
0.955776
-0.955776
-1.49072
0.136413
-1.49072
-4.15727
-0.180669
4.15727
-0.154425
-3.8906
-0.112249
-3.8906
-3.02252
0.0409879
3.02252
0.0416419
3.11216
0.0471977
-3.11216
0.0479953
-1.87093
3.75332
-1.88003
3.75408
-5.49323
-0.379194
-5.49323
6.08139
-0.208962
6.08139
3.49261
0.39597
-3.49261
0.390128
2.44772
0.102824
2.44772
-5.51251
0.273143
-5.51251
5.05694
0.182428
5.05694
2.59604
-0.148323
-2.59604
-0.374923
4.11753
-0.276045
4.11753
2.92179
-0.0514505
2.92179
-2.84804
-0.0223002
-2.84804
2.79719
-2.79719
2.72705
0.070134
-2.72705
0.0514745
-11.1327
11.114
-0.0349857
-11.0977
5.1735
5.1735
4.20639
0.571808
4.20639
-5.00637
0.210925
-5.00637
3.2857
-6.76295
3.50138
-6.83142
3.49635
-11.779
3.37737
-6.89572
5.00699
-5.00699
4.92199
0.0849987
-4.92199
0.0966057
-1.7116
0.0277199
-1.7116
-2.87255
-0.615277
-2.87255
4.15938
-0.671555
4.15938
-3.03199
3.03199
-3.07977
0.0477779
3.07977
0.0454449
4.30211
-0.184584
-4.30211
-0.120932
0.902467
0.167652
-0.902467
0.190843
3.53826
-0.210851
3.53826
-3.12984
-0.197565
-3.12984
-1.71607
0.0044737
1.71607
-0.00786793
-5.81758
0.246581
-5.81758
-11.1907
0.0930585
-11.1528
-6.1065
-6.1065
2.33392
11.1264
-2.86973
0.0216903
2.86973
0.0402012
2.97951
0.0524794
-2.97951
0.0562364
-2.86417
0.066977
2.86417
0.0591118
-2.56502
0.387512
-2.56502
-1.03056
1.03056
-1.21397
0.183413
1.21397
0.229474
1.19386
-0.238088
1.19386
1.5974
0.0766785
-1.5974
0.106677
-3.80064
-0.0899632
-3.80064
6.03775
0.0436337
6.03775
-3.00454
-0.125303
3.00454
-0.0827503
-0.0333113
11.1473
-5.14018
0.0342681
5.14018
-11.2087
11.243
-3.24649
0.681464
3.24649
0.959903
5.29423
0.276769
-5.29423
0.287863
5.06712
-0.0101776
-5.06712
0.0601229
-2.37235
-0.500198
-2.37235
-4.89622
-0.597009
4.89622
-0.736839
-11.4756
-0.20169
11.6773
-11.4188
6.01927
0.137517
-6.01927
11.3805
-0.918897
-0.0368787
0.918897
0.111662
1.51569
-0.321827
1.51569
3.71113
-0.172867
-3.71113
-0.0895113
-5.87101
0.358505
5.87101
0.166737
-1.93082
-0.441531
1.93082
-0.41513
-4.26642
4.3046
1.90957
-3.24611
-3.50836
-7.61623
1.85252
1.90079
4.3018
-7.30649
-4.47252
-7.20283
7.27261
-6.98475
-9.30104
9.20612
7.51765
-7.6299
-5.78515
5.8306
6.48162
-6.43998
1.87825
1.87534
7.41113
-7.09689
-15.6663
15.2871
6.96073
-7.43034
15.5168
-15.2436
-15.3432
15.333
-5.76825
5.80885
-6.65131
6.62901
-6.83827
6.75552
-3.18912
-3.6423
9.68387
-9.58514
11.3741
-11.4578
-8.40959
8.80619
3.38239
0.922212
3.42959
-1.88233
3.76058
-1.87126
3.78083
3.51438
-6.7035
3.24857
-6.75694
5.9906
5.38346
-5.88658
-1.72966
-5.90217
5.93546
-5.82279
5.8819
8.93327
-8.99693
-1.88591
3.76125
-1.86816
3.76896
-3.42494
-2.36021
3.37992
0.921886
5.84301
3.84086
-5.95716
-1.24566
-7.72404
7.55117
-8.00725
7.80968
-0.4524
5.82437
-5.37197
4.40238
-1.55356
7.37793
5.71904
5.92997
5.86833
-5.59156
1.11642
-6.48838
-6.39326
-2.56545
2.70187
2.56215
-2.40943
5.91467
1.60298
5.76024
-5.497
-2.1329
-5.58696
3.82025
2.01035
3.86803
4.07695
2.40468
4.11794
3.0308
-3.03622
0.00541387
-3.05567
6.08647
0.725039
-5.41588
-4.494
4.06708
3.34406
4.30477
-5.34261
-1.75428
-4.95248
-9.43303
-6.23326
-10.03
10.1024
5.18466
9.89348
-12.0708
12.2376
5.32549
1.63525
4.92458
-3.99175
-3.43859
-4.36667
12.0388
-0.895389
-11.1434
-9.47506
-5.86814
9.29263
6.22416
8.86344
6.46958
8.92356
3.34228
8.69648
-9.56644
3.6983
-3.86351
-1.90474
-3.81203
3.74249
2.06636
3.79375
-4.16382
-2.48748
-4.14213
-4.20025
-2.63802
4.2517
2.37731
-4.30194
-3.70531
4.42724
2.32828
3.25365
-7.72617
3.64207
-7.28437
-6.92388
-2.66126
-6.82727
4.35842
2.37627
-6.73469
-2.34508
10.8317
-5.44821
9.10201
-6.8039
-4.65389
-6.92483
-6.81609
-1.5935
-6.64046
-8.82713
8.32693
-9.11925
8.44769
12.6953
-5.64882
-7.04647
-3.96807
-2.47192
3.92007
-0.490484
-3.71158
3.71699
0.0490016
3.82983
4.75205
4.26156
-3.88612
-1.93667
-3.82988
3.82936
2.05255
3.89633
6.75882
2.17445
6.75871
-6.39922
-2.59771
-6.54107
9.09674
-8.68102
2.96899
-2.96451
5.22317
2.58652
-5.01232
-2.71172
6.04557
-3.02854
-3.01703
-12.2217
10.5912
1.63055
-4.84379
-0.44141
-0.018043
-5.51229
-3.78874
5.40013
0.529837
11.121
7.33226
-5.51446
5.76104
6.16281
6.22378
-0.169478
5.85656
-5.17509
5.28269
-2.28922
-2.99347
5.25532
-5.43599
-1.28574
-5.23727
3.95153
0.324252
1.87083
-1.58257
-2.05343
-0.512027
-1.94675
1.57559
0.986558
1.74324
0.984785
1.71708
-2.94428
0.560877
2.3834
-1.95949
-1.84855
-3.56939
-1.02938
4.59877
5.49888
2.0523
-5.40936
-0.177599
2.72894
-2.70994
-0.698759
-2.87063
2.17247
-2.87123
-3.50539
-1.9229
5.42829
-3.36877
-0.461111
3.31629
0.551736
-3.82201
-2.08016
3.78369
0.334247
-3.12562
6.19826
-3.07264
-5.06229
2.52891
3.55756
4.53926
-4.78945
2.44505
2.3444
-1.23189
3.18626
1.11852
3.28908
-6.94174
5.18747
5.68862
3.11758
-6.08459
1.1321
-5.80964
8.55042
-7.48861
-1.0618
3.66973
4.88068
7.16845
5.52684
-5.77239
12.9408
-1.27086
-6.21775
7.0805
-3.96292
4.78089
-8.74382
-10.3077
4.08998
-10.1057
12.269
-2.16337
-3.4084
-8.66244
13.5141
-1.27467
-12.2394
8.61881
-6.11797
-3.19916
9.31712
-7.01336
6.63775
-2.96326
-3.67449
-10.2344
-5.00929
9.87586
2.36172
-9.01828
12.7166
-0.321802
4.98761
-0.0630337
4.71157
4.53782
-6.05973
1.52191
2.47553
-5.43879
2.25714
-8.31687
-5.42749
10.0391
-4.61159
-8.08875
-7.72752
-0.361222
1.50859
11.208
-7.97816
5.54623
2.43193
3.30778
0.588554
-3.37791
-0.434119
0.34312
4.49959
-4.84271
4.13687
4.2202
3.40071
1.09888
3.80962
2.12584
-3.84982
-0.292314
-4.11059
1.47258
-1.73329
-3.63863
5.11121
-4.05967
0.421043
-2.71219
-3.55931
6.27149
-4.61693
3.04872
3.14953
5.10127
-4.95015
1.39084
-2.44108
-2.50906
2.66883
-4.40212
1.95117
3.16003
4.27945
0.57414
5.26482
4.77426
-7.64109
0.356721
8.61512
-7.36945
2.25593
6.66763
-7.80216
0.0746399
-6.75263
0.828019
-6.27623
-5.90667
5.14897
-6.74247
-3.59485
6.17432
0.584394
-6.25707
-0.383394
-5.97433
-2.85281
-6.41586
-3.0492
-6.07005
-8.82159
-1.64161
-7.17998
6.68532
-6.57378
-3.45626
7.31062
1.13707
-7.35152
7.31464
-7.43294
7.11111
0.0949787
3.62201
4.35654
1.88462
-2.39012
4.27475
-5.05176
7.22621
-8.44152
3.38976
3.92251
-6.52022
-4.51901
5.02664
4.0701
5.34499
8.94672
-10.5769
1.63015
-10.8632
12.1938
-1.33063
-16.6345
5.77125
-7.68774
2.70192
0.267067
2.72964
0.675998
2.41218
-3.08817
-2.28852
-2.29638
-2.26837
-3.32083
5.5892
1.11505
-3.32661
2.21156
-3.45366
4.56871
-0.0781274
-3.24849
5.22706
-2.81488
5.49413
-3.53178
1.96234
3.23069
5.51686
-2.28617
4.25702
-1.67051
1.77553
-4.0617
-1.5453
-3.01508
5.08144
-3.25641
3.67746
-0.23873
3.91619
-4.01021
0.98167
-0.609496
3.61071
3.77576
4.18972
-3.09084
2.88901
-4.55952
-1.17268
-3.98538
-0.825349
-0.356981
-3.7031
4.06008
6.06142
-6.41841
-5.30447
9.61507
-4.3106
7.74142
-5.43089
-2.31053
-4.28541
-4.39561
3.89789
1.95866
9.70009
0.20346
-5.63435
-4.97164
-4.01173
3.23346
2.04923
-2.06536
3.69591
2.0834
-0.212577
0.573231
1.17001
1.92126
-1.34803
0.221714
1.69955
-1.36086
1.99467
0.734275
-2.07135
0.124598
-1.30387
3.47634
1.07953
-2.06609
0.718057
1.09467
-3.38389
4.67272
-2.39018
-2.28254
5.76739
1.16116
-3.55134
4.07611
-3.75186
2.26509
-3.29447
-1.28625
-5.03811
-3.43513
-2.45757
4.66913
-3.13163
5.18393
1.16374
-5.00633
6.17007
-3.54071
1.6178
-3.00084
3.73512
-1.028
-1.97284
2.75659
2.67171
-2.89135
0.0207196
-0.134764
2.3073
-2.44207
-0.56393
-2.52342
-4.57215
4.9064
-2.10727
4.55233
2.16747
-1.91199
6.46432
1.81453
-3.72652
-3.24776
-3.70887
-1.38213
3.15713
-1.25196
-3.11471
-4.92645
3.26303
0.0260485
-6.78706
6.96354
-0.176478
-3.44301
-1.74446
5.41419
-6.24127
0.802476
-3.98413
2.97941
4.09793
4.12398
-11.6859
-0.553454
-6.50128
0.915299
-7.41657
5.79598
-3.66052
7.7505
-10.4174
6.96113
-9.28032
6.6887
-0.727874
6.80765
-5.28574
4.33572
-9.34501
-6.98329
5.8709
-4.23565
5.80787
-4.75967
10.5675
-5.08147
6.97058
3.59696
-1.73888
-5.18596
-6.3116
4.57272
0.658975
5.37054
4.94569
-2.81985
4.65337
2.23623
-4.67731
-2.16589
-6.5476
1.87029
-3.39806
-1.91594
3.78622
3.18533
3.77389
1.27716
-3.33977
7.3788
-7.74002
-2.76721
-3.13947
6.53297
-1.96025
4.39715
-7.53662
-1.87908
4.89257
-0.80957
-4.083
0.756255
-4.3511
1.59629
-5.9474
5.14618
-5.52957
2.18034
-9.86808
-5.17117
-5.05951
-2.2404
-5.19254
-7.65526
5.41485
-1.88401
5.43063
-8.68226
7.87269
-3.51158
8.92644
-5.37742
-1.03844
5.79255
1.31856
10.245
0.105739
-4.62475
-1.80741
3.92324
-2.11584
1.42605
-3.59736
0.325883
2.45583
3.31156
-6.40735
-0.11287
-4.73762
-3.9104
7.9805
5.70467
11.7661
1.18922
9.19729
-1.21679
10.3865
4.12819
4.35767
-2.96741
4.59756
1.09267
4.48243
-0.85444
2.81678
1.8752
1.866
0.843942
2.30528
1.47048
3.28695
0.198775
-2.09761
4.65967
-8.6714
-0.974679
-8.0996
1.10653
5.74451
-4.63798
3.16083
-1.1116
1.04499
0.17883
-1.79907
1.62024
-2.81464
-2.01165
-0.312097
-1.64438
2.36244
1.83196
-2.05034
-0.7643
0.314808
-3.74994
2.97966
-2.95894
-0.287235
5.88284
-2.69888
0.256817
-1.08108
-2.2666
-2.77863
2.65403
6.1793
0.285015
3.10666
5.19141
3.11125
0.291403
3.94461
-6.10798
-4.37226
-6.66144
-0.865455
4.54874
3.1649
8.0431
6.76186
4.80161
-2.73501
-10.475
6.57168
-1.97412
5.24105
-1.15806
-4.78934
4.9703
2.25591
-5.55469
0.0251222
-4.76422
-6.73834
-0.529653
8.40234
-9.71535
8.67691
5.8241
1.35588
-4.37033
-0.689181
4.18692
0.170753
10.5573
-1.13004
-6.89883
8.02887
-4.61447
3.63979
0.901411
2.7945
2.52165
1.41005
-5.48878
-10.1268
-1.83435
-1.54953
-4.11689
0.481877
-2.31383
6.28133
-2.64155
3.9708
5.38733
6.43232
-2.19873
-4.21968
6.50933
-2.53852
3.8938
)
;

boundaryField
{
    wall-4
    {
        type            calculated;
        value           uniform 0;
    }
    velocity-inlet-5
    {
        type            calculated;
        value           uniform -3.75095;
    }
    velocity-inlet-6
    {
        type            calculated;
        value           uniform -5.62643;
    }
    pressure-outlet-7
    {
        type            calculated;
        value           nonuniform List<scalar> 8(5.94095 5.84638 6.47878 6.94512 6.84838 6.79291 6.78709 6.87373);
    }
    wall-8
    {
        type            calculated;
        value           uniform 0;
    }
    frontAndBackPlanes
    {
        type            empty;
        value           nonuniform 0();
    }
}


// ************************************************************************* //
