/*--------------------------------*- C++ -*----------------------------------*\
| =========                 |                                                 |
| \\      /  F ield         | OpenFOAM: The Open Source CFD Toolbox           |
|  \\    /   O peration     | Version:  4.0                                   |
|   \\  /    A nd           | Web:      www.OpenFOAM.org                      |
|    \\/     M anipulation  |                                                 |
\*---------------------------------------------------------------------------*/
FoamFile
{
    version     2.0;
    format      ascii;
    class       volVectorField;
    location    "21";
    object      U;
}
// * * * * * * * * * * * * * * * * * * * * * * * * * * * * * * * * * * * * * //

dimensions      [0 1 -1 0 0 0 0];

internalField   nonuniform List<vector> 
918
(
(0.98515 -0.000533919 0)
(0.00500183 2.96626 0)
(-0.0160391 1.57091 0)
(0.979691 0.00216779 0)
(-0.00304712 1.55597 8.72677e-21)
(-0.00703203 2.94878 -1.84103e-18)
(0.855524 1.19932 7.43148e-19)
(0.413007 0.187253 -8.64659e-21)
(0.999905 -0.000322667 0)
(0.0718976 0.809347 0)
(-0.0535602 0.99788 0)
(0.761365 -0.0115124 0)
(0.0111188 2.93031 0)
(0.00200774 2.79452 0)
(-0.0176099 3.16742 1.09748e-18)
(-0.00306895 1.44049 6.35696e-21)
(0.534428 0.0833856 5.41824e-19)
(0.193125 1.20391 6.56794e-19)
(0.962989 0.00514368 0)
(0.00407685 1.29429 0)
(0.13693 0.246094 -4.63767e-19)
(1.00208 -0.00499551 0)
(1.00023 -0.00975272 0)
(0.975757 -0.00645097 0)
(0.673289 -0.0377092 0)
(0.0174048 2.63245 0)
(-0.0150504 2.91013 6.33472e-19)
(-0.0263829 1.59058 0)
(-0.0331643 1.72997 0)
(-0.0271613 1.58323 0)
(-0.00503127 1.85129 0)
(0.00268062 1.5817 -6.90243e-21)
(-0.00260886 1.45533 0)
(-0.0206226 2.98758 -6.42747e-23)
(-0.0167039 3.00531 1.43106e-18)
(0.00210817 3.00021 0)
(0.870865 -0.00913152 0)
(0.394358 0.931509 -4.08075e-20)
(0.835709 1.21717 -1.04432e-18)
(0.982072 1.05358 9.773e-19)
(0.702296 1.31294 -1.72324e-19)
(0.698948 1.30252 9.66278e-19)
(0.447379 0.275165 8.4362e-21)
(0.441292 0.173301 0)
(1.16403 0.562029 0)
(0.414974 0.286036 3.96175e-20)
(0.373448 0.189024 -4.1113e-20)
(0.919493 -0.0074452 0)
(1.00028 5.63315e-05 0)
(0.99991 0.000305918 0)
(1.00352 -0.00778795 0)
(1.00094 -0.00106164 0)
(1.00017 -8.18061e-06 0)
(0.0505137 1.81816 -2.91543e-19)
(0.0390206 0.949122 0)
(0.0806409 0.912727 0)
(0.0142311 0.863098 0)
(0.00892417 0.729163 0)
(0.00433859 1.53522 0)
(-0.0669702 1.04659 0)
(-0.0510813 0.853736 0)
(-0.0472018 1.1869 0)
(-0.0349345 1.11605 0)
(0.842157 -0.00411814 0)
(0.861371 0.0107241 0)
(0.774656 -0.00268477 0)
(0.854408 0.0159204 0)
(0.747599 -0.0131425 0)
(0.0147056 3.00039 6.7344e-19)
(0.0115355 3.00789 0)
(0.00614017 3.00285 0)
(0.0135544 2.99733 7.50101e-24)
(0.0079968 2.95845 -1.0009e-18)
(0.0144847 2.98204 0)
(0.0107778 2.90365 0)
(0.0252992 2.93019 1.33156e-24)
(0.00410748 2.82496 0)
(0.0317889 2.91538 0)
(-0.0066802 2.74475 0)
(0.311435 3.56787 0)
(-0.132436 3.65014 0)
(0.141215 3.25819 -1.02137e-18)
(-0.0111745 2.9902 0)
(-0.0242394 1.82649 0)
(0.00763766 1.61791 -6.2706e-21)
(-0.0030786 1.44791 1.11955e-20)
(0.586879 0.151394 -1.86246e-19)
(0.52883 0.0514688 -1.81393e-19)
(0.575306 0.181325 -5.62082e-19)
(0.523686 0.112873 -3.78087e-19)
(0.207359 0.893812 0)
(0.271945 1.34907 -6.77678e-19)
(0.39779 1.30341 1.11236e-18)
(0.98754 0.00847074 0)
(0.942383 0.00595534 0)
(1.00029 0.000561419 0)
(1.00288 0.00927853 0)
(1.00306 0.00849646 -1.01936e-18)
(0.99195 0.00966277 7.69779e-19)
(-0.0109999 1.45722 0)
(-0.00611139 1.27928 0)
(-0.0347428 1.59723 0)
(-0.020555 1.50065 0)
(-0.00230509 1.32921 0)
(0.202927 0.257228 1.42995e-19)
(0.249084 0.234514 0)
(0.993559 -0.00827006 0)
(0.95439 -0.00640958 0)
(0.823068 0.0245808 0)
(0.790118 0.036504 0)
(0.725419 -0.0283803 0)
(0.990542 -0.00374617 0)
(0.732434 0.0514903 0)
(0.583773 -0.0169755 7.19916e-19)
(-0.0354913 2.86649 3.13638e-19)
(0.0434016 2.90829 0)
(0.0566422 2.88307 0)
(-0.00510589 2.69673 0)
(-0.0131985 2.98516 5.80967e-19)
(-0.0182861 2.89539 0)
(-0.0154188 2.98812 -1.84084e-18)
(-0.0134085 2.92521 6.36269e-19)
(-0.0300063 1.81206 0)
(-0.0254291 1.81095 0)
(0.00261953 1.59931 2.81753e-22)
(0.0042267 1.57451 0)
(-0.00554157 1.45089 0)
(0.936622 -0.00600011 0)
(0.855205 -0.00938032 0)
(0.864522 0.00859723 0)
(0.948616 -0.00724001 0)
(0.88338 -0.00840137 0)
(0.508194 1.12732 3.98549e-20)
(0.56011 1.18276 0)
(0.353921 0.869203 3.0357e-21)
(0.297174 0.730781 0)
(0.942014 1.08992 -2.82702e-19)
(1.05386 0.888214 5.79369e-19)
(0.394969 1.4017 0)
(0.554954 1.37948 0)
(0.556267 1.33242 0)
(0.0980732 0.149738 -1.18443e-19)
(0.490481 0.259406 0)
(0.474463 0.158974 1.07889e-19)
(1.02352 0.941079 0)
(1.08912 0.783814 0)
(1.11507 0.726336 -5.07881e-19)
(1.14413 0.621279 0)
(1.19543 0.404302 5.80986e-20)
(0.956996 -0.00896909 0)
(0.962185 -0.0102312 0)
(0.900929 -0.00809908 0)
(0.9842 -0.00912754 0)
(0.97453 -0.00935854 0)
(0.936879 -0.00625916 0)
(1.0002 0.00231824 0)
(1.00086 0.0012973 0)
(0.999931 0.000862594 0)
(0.00923651 2.02565 1.75427e-19)
(0.126035 1.71839 0)
(-0.0345996 2.07639 1.93632e-19)
(-0.0182695 1.85511 -1.05177e-19)
(0.133855 1.19708 -5.44408e-19)
(0.0723289 1.04702 0)
(0.10518 1.04798 0)
(0.00608104 0.822786 0)
(-0.010823 0.699457 0)
(-0.00629532 1.75766 2.22322e-21)
(-0.0638314 1.62682 0)
(0.0533552 1.70863 1.30935e-19)
(-0.00274566 1.46453 -2.27187e-19)
(-0.0240466 0.81983 0)
(-0.0545289 0.912357 0)
(-0.0352634 0.746358 0)
(-0.0350948 1.29946 0)
(-0.0217643 1.19149 0)
(0.933458 0.0152461 0)
(0.863477 -0.000859966 0)
(0.9173 0.00585712 0)
(0.83572 -0.00782405 0)
(0.811012 0.00531161 0)
(0.90253 0.0151944 0)
(0.881261 0.0133584 0)
(0.786704 0.0034266 0)
(0.00588832 3.06486 -5.89534e-21)
(0.016365 3.05795 0)
(0.014662 2.96915 0)
(0.00855601 2.87639 0)
(0.929612 3.98806 0)
(1.24546 3.3177 1.01889e-18)
(0.0714927 3.08242 0)
(-0.0266233 2.91068 0)
(-0.0306156 1.80216 0)
(-0.0331289 1.81993 0)
(-0.02871 1.80862 0)
(-0.0100711 1.83985 4.90295e-21)
(-0.0245105 1.83789 0)
(-0.017912 1.83354 0)
(0.00860348 1.46268 -2.50403e-20)
(0.0228132 1.6579 -4.31836e-20)
(0.0109907 1.6347 -1.12701e-20)
(-0.000955871 1.456 0)
(0.616624 0.124714 2.74401e-19)
(0.547748 0.021646 -2.67175e-19)
(0.267034 1.5267 0)
(0.259051 0.663749 -2.06284e-19)
(0.183258 1.61419 -6.94172e-19)
(0.244642 1.16117 6.95914e-19)
(0.90383 0.00671145 0)
(0.967807 0.0106785 0)
(0.974934 0.0105979 0)
(0.924395 0.00662339 0)
(-0.0279527 1.38152 0)
(-0.017911 1.43171 0)
(-0.0147512 1.24018 0)
(0.372796 0.290284 3.66539e-19)
(0.316107 0.272491 -4.48183e-19)
(0.322971 0.210566 0)
(1.11459 0.0849527 -4.91308e-21)
(1.0999 0.0391296 0)
(1.02714 0.0387172 0)
(0.930086 0.00464955 0)
(0.641966 0.0931756 0)
(0.673121 0.0678979 -1.15921e-18)
(0.563142 0.00600456 4.43432e-19)
(0.00978203 2.98224 4.05797e-19)
(-0.0322011 2.86762 4.811e-20)
(0.00377354 3.05023 -1.27583e-20)
(0.0199732 3.04347 4.58854e-19)
(-0.0150016 2.99654 2.11771e-20)
(-0.0129851 2.94941 -8.57501e-23)
(-0.0172964 3.01201 -4.02166e-19)
(0.0148138 3.02402 2.91049e-19)
(0.00731611 3.03682 -4.54275e-19)
(0.924261 -0.000233802 0)
(0.933562 -0.00200527 0)
(0.840416 -0.00752832 0)
(0.957363 0.0115182 0)
(0.944054 0.0133775 0)
(0.883447 0.00727252 0)
(0.918569 0.0144236 0)
(0.927787 0.0145477 0)
(0.8393 0.00774812 0)
(0.716836 1.41297 3.40605e-19)
(0.752569 1.52434 0)
(0.221877 0.362209 2.40042e-20)
(0.18214 0.585195 1.92521e-19)
(0.266006 0.689927 -1.06031e-19)
(0.227659 0.573193 1.92502e-19)
(0.291381 0.699689 6.89877e-19)
(0.104121 0.179883 2.1019e-19)
(0.552947 0.218112 4.06481e-19)
(0.520935 0.241478 1.00213e-19)
(0.500746 0.141827 2.04465e-19)
(1.18472 0.461318 3.06323e-19)
(1.20237 0.256083 3.20481e-19)
(-0.0583796 2.05391 3.34475e-20)
(-0.0175212 1.8366 0)
(0.978336 0.0287147 0)
(0.945873 0.0190512 0)
(0.889509 -0.00214819 0)
(0.0111494 3.07471 0)
(0.0200899 2.94424 7.83899e-19)
(0.0165109 2.95652 0)
(0.00607637 2.85066 -7.77584e-19)
(0.00617143 3.09202 1.85543e-19)
(0.00713141 3.08214 0)
(0.786614 1.82975 -2.42924e-19)
(1.25257 2.51359 6.70184e-19)
(0.769533 1.97111 -1.50568e-18)
(0.021026 2.98453 -2.91198e-19)
(0.036971 3.00691 0)
(-0.0324888 2.88205 0)
(0.075186 1.67113 1.87568e-20)
(0.0445371 1.68971 1.47865e-19)
(0.0372443 1.4602 -1.03387e-21)
(0.279014 1.33715 6.67815e-19)
(0.218603 0.444521 -4.60826e-19)
(0.0566798 1.94574 4.60309e-19)
(0.133942 1.82323 -5.77414e-19)
(0.2043 1.46331 8.26403e-20)
(0.00574551 3.11845 -9.69859e-19)
(0.0119297 3.11911 1.05905e-18)
(-0.00881397 2.98079 5.0301e-19)
(-0.00366497 2.9777 -4.42048e-19)
(-0.021636 2.88161 -5.12307e-19)
(0.0085642 3.09932 -1.35644e-18)
(0.00180762 3.10532 1.36034e-18)
(0.225449 0.617896 0)
(0.178033 0.601755 -3.78354e-19)
(0.121225 0.204647 1.69046e-19)
(0.320901 0.821066 6.31069e-19)
(0.170927 0.224991 -9.63567e-19)
(1.19826 0.171312 -6.2164e-20)
(1.20199 0.308398 0)
(1.18692 0.11955 1.26781e-19)
(-0.0435622 1.88758 2.41188e-21)
(-0.0392102 1.99042 0)
(-0.0503109 1.75785 0)
(0.329999 1.22003 -2.42909e-19)
(0.350682 1.03749 -5.17484e-19)
(0.190113 0.320134 8.86526e-19)
(1.00584 -0.0110676 0)
(1.00759 -0.0076151 1.86044e-19)
(-0.031464 1.79475 0)
(-0.0391337 1.8009 0)
(1.00221 0.00337856 1.67334e-21)
(1.00354 0.00923782 3.82626e-19)
(-0.0115377 1.84769 -6.42981e-21)
(-0.00759561 1.84997 0)
(0.0390727 3.18339 1.002e-19)
(0.40043 3.50283 0)
(1.11771 0.645255 7.00223e-20)
(1.01313 0.0127601 -2.07981e-21)
(1.02119 -0.0105092 0)
(1.00173 -4.27373e-05 1.86892e-24)
(0.162706 1.24567 0)
(0.191728 2.58089 0)
(-0.227763 1.24045 0)
(-0.217825 2.54477 -1.69517e-19)
(-0.151883 2.18826 3.0999e-20)
(1.00659 0.0128432 3.06575e-21)
(1.04964 0.00786903 0)
(1.07469 0.030775 0)
(-0.0347508 1.82243 0)
(-0.0326399 1.90804 0)
(-0.0520942 1.74398 0)
(0.285758 1.45358 -4.52209e-19)
(1.01109 -0.00960747 0)
(1.00947 -0.0153067 0)
(1.00238 0.000393197 2.35659e-19)
(1.0055 -0.00500257 -2.79931e-19)
(1.00123 -0.00109053 0)
(-0.0442831 1.80883 0)
(-0.0349134 1.7921 0)
(-0.0362353 1.80167 0)
(-0.0433293 1.74924 0)
(-0.0326983 1.76794 0)
(-0.0368974 1.76399 0)
(1.03268 -0.0120899 0)
(1.02069 0.0158528 -1.1562e-21)
(0.781685 1.26476 5.30931e-19)
(1.00244 0.000256137 -2.36661e-19)
(1.00375 0.00533384 2.79057e-19)
(1.00127 0.00213254 0)
(1.01303 0.0100791 2.2988e-19)
(1.00828 0.00830931 -2.86376e-19)
(1.00865 0.0144644 0)
(-0.0297482 1.90415 0)
(-0.0176477 1.87393 -2.36767e-22)
(-0.0162527 1.87606 2.14658e-21)
(1.19006 0.256437 -9.66489e-20)
(1.12859 0.0897822 0)
(0.0524449 3.078 -4.98998e-19)
(0.0681944 2.85118 -4.02658e-20)
(0.147545 3.19739 7.87689e-19)
(0.141611 3.22642 7.12806e-21)
(0.140083 3.24243 0)
(0.0210168 3.13853 1.06738e-19)
(0.0803189 3.16216 4.86078e-19)
(0.0729659 3.18952 -2.06791e-19)
(0.0250736 3.12855 0)
(0.664066 0.325215 0)
(0.603235 0.367707 0)
(1.09065 0.671817 -2.64851e-19)
(1.08791 0.81231 4.06175e-19)
(1.14628 0.561384 0)
(1.17767 0.502961 0)
(1.01601 0.0130131 -4.24258e-19)
(1.01461 0.0139802 5.29981e-19)
(1.02515 -0.0104987 0)
(1.02336 -0.0121334 0)
(1.00689 0.00275266 0)
(1.01023 0.0031344 0)
(1.00493 0.0015655 0)
(1.00987 0.00581073 0)
(1.00824 0.0063586 0)
(1.0042 0.00462669 0)
(0.181804 1.24783 0)
(0.126645 1.09319 0)
(0.209607 1.33557 0)
(0.12471 1.3361 0)
(0.167737 2.59159 0)
(0.20467 2.63443 -2.05527e-19)
(0.0951456 2.65688 0)
(0.0839854 2.64129 -1.27619e-20)
(-0.0972117 2.70928 2.1144e-19)
(-0.189984 1.30201 0)
(-0.181152 1.33969 0)
(-0.210921 1.22411 0)
(-0.147373 1.07186 0)
(-0.399216 2.2276 2.39904e-19)
(-0.223439 2.32625 -8.0651e-20)
(-0.209209 2.5302 -1.75633e-19)
(-0.16841 2.42416 0)
(-0.140216 2.18274 -4.65893e-20)
(-0.0830432 2.11428 3.66492e-20)
(-0.430728 2.1974 -2.22154e-19)
(-0.318644 2.25958 1.05678e-19)
(-0.296325 2.3927 2.34441e-19)
(1.01645 0.0254096 4.18231e-19)
(1.01193 0.0129375 -5.13103e-19)
(1.00812 0.0229767 -4.38829e-19)
(0.991791 0.0124558 5.58986e-19)
(1.04968 0.00849836 0)
(1.03633 -0.0114101 0)
(1.07126 0.0392436 0)
(1.05569 0.0180508 0)
(1.05424 0.0120817 0)
(1.11217 0.0773847 0)
(1.08457 0.0485521 0)
(1.08757 0.0391901 0)
(-0.0276636 1.85284 -1.43553e-21)
(-0.0418869 1.83984 0)
(-0.0299754 1.84081 0)
(-0.0440562 1.94051 3.81902e-21)
(-0.0351311 1.95578 1.62496e-22)
(-0.0751085 1.81476 7.51025e-21)
(-0.0529077 1.80863 -7.61398e-21)
(-0.0632962 1.7689 0)
(-0.0493692 1.78784 0)
(-0.0470075 1.78968 0)
(-0.0718632 1.72171 0)
(-0.0529906 1.67111 0)
(0.390128 1.47189 8.55091e-19)
(0.409517 1.48652 3.31498e-19)
(0.588676 2.4321 -1.51872e-19)
(0.403826 2.52098 4.2577e-19)
(0.341418 2.09023 -4.50095e-20)
(1.02067 -0.00872735 0)
(1.01515 -0.00985398 0)
(1.01485 -0.0157059 0)
(1.00752 -0.00123705 0)
(1.00464 -0.00149794 0)
(1.00745 -0.00472647 0)
(1.00956 -0.00399731 0)
(1.01376 -0.00461811 0)
(1.02216 0.0162746 4.01556e-19)
(1.01737 0.0156245 -5.16113e-19)
(1.0238 0.0200839 -4.08317e-19)
(1.01751 0.0207797 5.11632e-19)
(0.756374 1.31169 0)
(0.687577 1.36983 6.30627e-19)
(0.858067 1.20279 3.6861e-19)
(0.898894 1.16076 -4.90504e-19)
(1.14876 2.61685 -5.80159e-19)
(0.835566 0.108126 2.80443e-19)
(1.1283 0.101172 0)
(1.17348 0.180597 8.25803e-20)
(1.15935 0.156942 3.61298e-21)
(0.982048 0.122393 0)
(0.14791 2.96707 1.14091e-19)
(0.125389 2.87306 -6.45097e-19)
(0.0377774 2.35628 4.68787e-19)
(0.10313 0.0957959 -1.96722e-19)
(0.345134 3.43096 -4.51485e-19)
(0.199398 3.32177 0)
(0.240769 3.36634 5.87976e-19)
(0.255769 3.0407 -7.07343e-19)
(0.34984 3.20017 0)
(0.00770252 3.12048 2.56109e-20)
(0.0189075 3.12938 -3.26639e-19)
(0.0165585 3.12531 4.80776e-19)
(0.0377781 3.13973 0)
(0.0361334 3.15177 0)
(1.21572 2.61847 0)
(0.51027 0.854381 -2.24862e-19)
(1.01925 0.987552 -2.09704e-19)
(0.95437 1.05371 0)
(0.798238 0.949347 6.06214e-20)
(1.04047 0.861258 3.05172e-20)
(0.408032 0.455525 -5.27089e-19)
(0.701154 0.336241 -2.22194e-20)
(0.68808 0.280072 2.15402e-19)
(0.614919 0.398591 1.72656e-20)
(0.552948 0.385331 -7.11059e-19)
(0.674565 0.359322 0)
(0.708539 0.424409 3.51168e-19)
(0.705909 0.421772 0)
(0.640872 0.388152 0)
(0.624795 0.329919 0)
(0.765697 0.587139 1.21354e-19)
(1.18863 0.272237 6.48274e-20)
(1.18497 0.40296 0)
(1.19703 0.358158 0)
(0.766552 0.198337 3.25348e-19)
(0.820487 0.520771 -1.75438e-19)
(0.737746 0.492917 2.84643e-19)
(0.913455 0.418861 -2.61754e-19)
(1.01928 0.0144917 2.77874e-19)
(1.01763 0.0138374 -2.85595e-19)
(1.01506 0.0155319 0)
(1.03427 -0.00889943 0)
(1.02905 -0.00948985 -2.53836e-19)
(1.02681 -0.0124035 2.50956e-19)
(1.02595 0.00794286 0)
(1.02467 0.013064 0)
(1.0115 0.00395341 0)
(1.01427 0.00902102 0)
(1.01515 0.0036693 0)
(1.01389 0.00206103 0)
(0.139074 1.05974 0)
(0.0539923 0.960568 0)
(0.270086 1.37774 4.21928e-19)
(0.260817 1.45007 2.62852e-19)
(0.196685 1.43293 6.00496e-19)
(0.202548 1.42717 -9.60167e-19)
(0.219265 1.41009 0)
(0.209528 1.60909 2.51523e-19)
(0.243942 1.61371 0)
(0.328341 2.03967 6.53827e-20)
(0.340137 2.37916 2.23314e-19)
(0.204903 1.46731 -2.28659e-19)
(0.243393 1.39318 2.01752e-19)
(0.22312 1.38633 -1.61757e-19)
(0.255052 1.33634 3.32062e-19)
(0.197317 1.58326 0)
(0.281396 1.61153 -2.09766e-19)
(-0.0199897 2.52135 1.89768e-19)
(-0.070287 2.73615 0)
(0.104408 2.51016 -3.0432e-19)
(0.0276495 2.59113 0)
(0.0513326 2.70569 1.28638e-20)
(-0.0282649 2.73713 0)
(-0.38092 1.54754 3.5443e-19)
(-0.420928 1.69066 0)
(-0.247694 1.33888 0)
(-0.302993 1.33824 -3.99609e-19)
(-0.221504 2.6284 -7.37437e-20)
(-0.168455 2.72111 -2.7899e-19)
(-0.181022 2.68485 -1.79818e-21)
(-0.39653 2.02192 -3.70936e-20)
(-0.43967 1.97899 -8.32086e-20)
(-0.156855 1.42958 0)
(-0.111716 1.4626 0)
(-0.178454 1.85244 -7.22188e-19)
(-0.203006 1.40632 -7.01028e-19)
(-0.255371 1.65484 8.87883e-19)
(0.0787165 1.81433 0)
(-0.0886533 1.88379 -1.7967e-20)
(-0.0766983 1.9227 5.22847e-21)
(-0.0915691 1.94555 -1.12489e-21)
(-0.330156 1.9202 4.33278e-20)
(-0.150172 2.05118 2.77037e-21)
(-0.182506 2.10851 1.43345e-20)
(1.02048 0.0237706 -2.74243e-19)
(1.01893 0.0239319 2.73058e-19)
(1.01447 0.0209179 0)
(1.00529 0.0481954 3.9911e-19)
(0.993802 0.0345177 -4.69977e-19)
(0.965454 0.0229396 5.4537e-19)
(1.00616 0.0825854 -5.159e-20)
(1.03805 -0.0111959 0)
(1.03946 -0.00753733 2.26028e-19)
(1.03135 -0.0202407 -2.28076e-19)
(1.05708 0.0433842 -1.23655e-20)
(1.05521 0.026263 1.10772e-19)
(1.05421 0.0513794 0)
(1.04667 0.0434968 -4.16018e-20)
(1.03862 0.0278269 0)
(1.03413 0.0230562 0)
(1.02926 0.0112244 0)
(1.02772 0.0151536 0)
(1.04642 0.0265202 8.67297e-20)
(1.04678 0.0193289 -1.96687e-19)
(1.04931 0.0285553 -8.69475e-20)
(1.04716 0.0286375 -1.01397e-19)
(1.05502 0.0572903 1.80248e-19)
(1.07692 0.0508113 0)
(1.0805 0.0932574 0)
(-0.0821077 1.87893 -7.4287e-21)
(-0.0530532 1.84307 -1.3074e-21)
(-0.0643791 1.85185 0)
(-0.0542863 1.88257 7.43549e-21)
(-0.0339821 1.85774 2.63089e-21)
(-0.040271 1.86963 -1.51148e-21)
(-0.0686319 2.08453 -4.16637e-20)
(-0.0968093 1.97984 -4.50739e-22)
(-0.114695 2.01177 -3.37002e-22)
(-0.0461286 2.00567 6.60415e-21)
(-0.0471347 2.0251 -6.71483e-21)
(-0.0986291 1.78838 -1.34942e-22)
(-0.0962844 1.81794 1.00623e-20)
(0.387779 1.39675 -4.38881e-19)
(0.365744 1.37703 -4.30577e-19)
(0.64068 1.41781 -6.06883e-19)
(0.518929 1.47918 -3.27857e-19)
(0.557814 1.45606 0)
(0.58759 2.40528 1.19717e-19)
(0.653815 2.38949 2.21148e-19)
(0.408163 2.49614 7.7457e-20)
(0.405382 2.55312 -1.56967e-19)
(0.51568 2.51652 2.53925e-19)
(0.542241 2.44493 0)
(0.482856 2.48722 -3.46614e-19)
(0.258109 2.55185 5.99352e-19)
(0.343719 2.53711 -7.34584e-20)
(0.287832 2.61424 -9.13063e-19)
(0.924547 2.37247 2.04837e-19)
(0.832057 2.36323 0)
(1.01046 0.000488219 9.27004e-21)
(1.01539 -0.00572952 -7.67116e-21)
(1.018 -0.0040475 -1.3801e-19)
(1.01507 -0.000482346 1.37986e-19)
(1.01231 0.00102986 0)
(0.623157 1.2581 0)
(0.621563 1.17418 0)
(0.729907 1.07785 0)
(0.6197 1.12359 0)
(1.17939 2.63343 5.62275e-20)
(1.0626 2.36664 0)
(0.831692 2.23351 -1.90274e-21)
(0.829556 2.47938 0)
(0.917564 2.56219 2.56412e-20)
(0.95 2.51807 -1.71789e-20)
(0.843353 0.145929 0)
(0.812223 0.151092 8.09744e-20)
(0.927941 0.126001 4.09588e-19)
(0.866813 0.116494 -1.65092e-19)
(0.852245 0.0666733 -4.9761e-19)
(1.03379 0.213683 -2.19681e-19)
(0.954624 0.273105 -1.59669e-20)
(0.901051 0.271339 3.71357e-19)
(0.968427 0.197821 2.73201e-19)
(0.935334 0.158948 -5.12366e-19)
(0.909676 0.172767 6.66111e-20)
(0.93493 0.235139 -1.28955e-19)
(0.912048 0.193992 0)
(0.970418 0.158926 2.44518e-19)
(1.00934 0.163008 0)
(1.0056 0.189464 0)
(1.07329 0.109028 7.49807e-20)
(1.03335 0.154044 -1.29632e-20)
(1.02777 0.216183 -4.20002e-20)
(1.06412 0.189128 0)
(1.0237 0.0273405 2.07729e-19)
(1.04051 0.0473927 2.45564e-19)
(1.03907 0.0319439 -2.06236e-19)
(1.0372 0.0517955 -1.65398e-19)
(1.01698 0.0533091 -2.80808e-19)
(0.975038 0.123789 0)
(0.984042 0.076517 0)
(0.96873 0.0429739 -1.96655e-19)
(0.936017 0.0576617 8.25963e-20)
(1.02445 0.0824771 2.33185e-19)
(1.03979 0.11039 -2.31382e-19)
(1.04283 0.135179 2.1184e-19)
(1.00804 0.123034 0)
(1.04906 0.0968374 0)
(1.03638 0.0793701 -9.71055e-20)
(1.03405 0.0801005 -1.86894e-19)
(0.567731 1.07561 -1.06848e-19)
(0.614565 1.45051 2.06732e-19)
(1.15435 2.76251 1.18108e-19)
(1.2231 3.09794 -7.41405e-20)
(1.24453 2.73528 5.87541e-19)
(1.27793 2.71893 -3.51539e-19)
(1.20359 2.35262 -7.77023e-21)
(1.20885 3.0017 2.08153e-19)
(1.22621 2.96677 -2.36816e-19)
(1.21539 3.25108 -2.74096e-19)
(1.37767 2.98218 3.79583e-19)
(1.37099 2.89871 0)
(0.514096 0.863119 -1.13809e-20)
(0.161362 1.2901 3.64857e-19)
(0.526696 0.531396 3.47397e-19)
(0.360623 0.301082 3.79025e-19)
(0.561462 0.419667 3.98023e-19)
(0.562388 0.48686 -6.34336e-19)
(0.564579 0.50504 5.22763e-19)
(0.525692 0.456196 -2.08627e-19)
(0.47472 0.393751 4.78017e-19)
(0.774052 0.256039 -1.82104e-19)
(0.729454 0.303831 0)
(0.720072 0.247384 1.03454e-20)
(0.730299 0.509047 1.82873e-19)
(0.70174 0.472097 -6.75601e-19)
(0.627138 0.483297 1.90979e-20)
(0.642168 0.456559 0)
(0.637865 0.731394 1.42388e-19)
(0.78366 0.751888 4.5833e-20)
(0.710473 0.838621 -6.21058e-20)
(0.831198 0.788754 -1.28068e-20)
(0.868087 0.829779 1.56724e-20)
(0.876708 0.832936 -1.60457e-20)
(0.805347 0.622551 -2.0743e-19)
(0.880141 0.678718 1.19003e-20)
(0.939124 0.694845 0)
(0.92767 0.671655 -8.80655e-21)
(0.98067 0.310548 5.62598e-20)
(1.09596 0.280104 -5.61035e-21)
(1.01863 0.247365 8.9612e-20)
(0.965016 0.346618 -1.32138e-19)
(1.01636 0.403652 0)
(1.05604 0.390323 0)
(0.88686 0.35699 5.53932e-21)
(0.822889 0.287004 0)
(0.846381 0.272613 1.93555e-19)
(0.879355 0.279138 -5.91529e-21)
(0.906493 0.421397 7.14248e-19)
(0.868565 0.475431 1.81044e-19)
(0.874552 0.444448 -2.36443e-19)
(0.804167 0.428876 2.5361e-19)
(0.790583 0.426741 1.74337e-19)
(0.75659 0.410587 -1.71461e-19)
(1.02767 -0.00219537 2.21475e-19)
(1.01981 -0.000412206 0)
(1.01827 0.000461992 1.46976e-19)
(1.02202 -0.0011375 -3.30442e-19)
(1.0214 0.00351048 1.59599e-19)
(1.02082 0.0101828 -3.35643e-19)
(1.02189 0.00960882 0)
(1.02058 0.0106607 -7.09106e-20)
(1.01624 0.00747022 1.77982e-19)
(1.01694 0.0103252 -8.93519e-20)
(1.01762 0.00950953 6.54071e-20)
(-0.142775 1.09556 0)
(-0.201805 1.27739 0)
(-0.0336559 1.03413 0)
(-0.0513739 0.945902 0)
(0.243357 1.32784 -1.03502e-18)
(0.243842 1.26248 3.4484e-19)
(0.283544 1.55913 2.13779e-19)
(0.283724 1.32829 -2.12959e-19)
(-0.0539894 1.47416 8.44341e-19)
(0.0245285 1.46039 -6.25619e-19)
(0.218204 1.25224 6.59205e-21)
(0.140461 1.18086 6.70354e-19)
(0.0284371 1.14757 9.47842e-20)
(-0.0755693 1.20941 9.57631e-20)
(0.132289 2.46272 3.11608e-19)
(0.117732 2.48042 0)
(0.232103 2.10312 -3.03452e-20)
(0.235875 1.77978 -1.23266e-19)
(0.229786 2.0817 2.07362e-20)
(0.217032 2.44441 0)
(0.261067 2.4058 -1.35577e-19)
(0.297741 2.40949 9.62695e-20)
(0.228891 2.00604 5.83886e-20)
(0.185858 2.19591 2.6233e-20)
(0.164277 2.32957 0)
(-0.211383 2.30453 7.54781e-19)
(-0.287316 2.57504 5.11109e-19)
(-0.320664 2.44243 0)
(-0.150347 2.63986 -1.95935e-20)
(-0.0775626 2.56302 -3.6222e-19)
(-0.348168 1.50136 -2.71112e-20)
(-0.267352 1.54116 4.09103e-19)
(-0.281459 1.61537 -9.46807e-20)
(-0.390274 1.6012 -1.62135e-19)
(-0.391844 1.54359 0)
(-0.25006 1.60931 0)
(-0.0991692 1.64705 -1.36955e-20)
(-0.161527 1.6802 5.72007e-21)
(-0.20723 1.6321 0)
(-0.12694 1.54497 -1.52022e-20)
(-0.0697754 1.57687 2.37861e-20)
(1.03713 0.000582025 0)
(1.04121 -0.00141007 -2.10869e-20)
(1.0477 0.0145538 -1.55815e-19)
(1.04996 0.0140075 0)
(1.05042 0.0126105 0)
(1.04235 0.0036395 -6.93482e-21)
(1.03623 0.00394734 2.59529e-19)
(1.03823 0.0113262 3.13428e-19)
(1.02917 0.018547 0)
(1.0282 0.0190207 0)
(1.04254 0.0203625 1.57024e-19)
(1.03428 0.0196081 0)
(1.03153 0.0191681 0)
(-0.162833 1.89324 0)
(-0.12203 1.81969 1.28571e-21)
(-0.134732 1.87483 5.00231e-21)
(-0.13302 1.70247 0)
(-0.155378 1.79362 -2.61582e-21)
(-0.119725 1.77062 -4.05337e-21)
(-0.112728 1.74394 0)
(0.402353 1.68753 0)
(0.360017 1.30132 6.90177e-19)
(0.28563 1.35897 0)
(0.432352 1.27113 -8.80359e-19)
(0.481166 1.43956 0)
(0.441884 1.38085 4.1527e-19)
(1.02513 2.70132 -3.86443e-21)
(0.947234 2.40571 -2.58556e-19)
(0.879709 2.15157 3.1271e-19)
(0.845614 2.35627 1.11651e-19)
(0.842758 2.51943 0)
(0.90488 2.51197 0)
(0.891742 2.37012 0)
(0.895445 2.33929 -4.15185e-19)
(0.697407 2.50027 -1.65841e-21)
(0.806771 2.48802 -1.01245e-20)
(0.817239 2.46134 7.73478e-21)
(0.686247 2.36869 0)
(0.79477 2.36567 0)
(0.750492 2.37684 -2.25002e-19)
(0.775987 2.50483 0)
(0.583056 1.08606 0)
(0.478217 0.931722 2.07017e-20)
(0.520621 0.96234 3.17258e-23)
(0.505532 1.05142 0)
(0.507347 1.00766 -2.85631e-20)
(0.733134 0.865828 1.89868e-20)
(0.756676 1.00178 0)
(0.728603 0.958883 -7.19401e-20)
(0.611571 1.02414 0)
(0.613703 0.934589 0)
(1.15806 2.78078 6.67468e-20)
(1.13622 2.84579 1.32519e-19)
(0.927406 2.3749 -2.99499e-19)
(0.895275 2.34783 3.90105e-20)
(1.12079 2.74947 0)
(1.0721 2.71945 -4.67722e-20)
(1.07796 2.49156 -6.5167e-20)
(0.96999 2.22533 -2.96853e-20)
(0.482961 1.37229 0)
(0.488803 1.06697 9.41356e-20)
(0.541402 1.15012 0)
(0.857455 0.215266 0)
(0.821363 0.175936 0)
(0.78089 0.157874 0)
(0.849924 0.219764 -3.04176e-19)
(0.797173 0.213815 1.90146e-19)
(0.941597 0.0513478 -1.70189e-19)
(0.952314 0.101551 0)
(0.925453 0.104494 7.71155e-20)
(0.887681 0.0802813 3.16483e-19)
(0.881803 0.0482046 -1.9422e-19)
(1.16615 3.37629 -9.94509e-19)
(1.21193 3.2959 0)
(1.16655 3.40269 -1.95608e-18)
(0.6532 3.56324 1.67961e-18)
(0.879836 3.12814 3.94555e-19)
(0.49584 0.884817 2.06655e-19)
(0.431295 0.869925 0)
(0.357817 0.560043 -8.13001e-20)
(0.435548 0.701534 3.64806e-19)
(0.531791 0.532099 -1.09586e-19)
(0.516556 0.554945 1.25848e-19)
(0.664897 0.528337 2.59996e-19)
(0.687645 0.539637 0)
(0.63586 0.629371 0)
(0.595164 0.557011 0)
(0.935632 0.582559 -5.61683e-20)
(0.86908 0.521554 -1.7501e-19)
(0.890198 0.554147 7.64427e-20)
(0.925047 0.495844 -1.27491e-19)
(1.0217 0.467166 0)
(1.03116 0.557421 -2.3886e-21)
(0.82405 0.388176 -3.86122e-19)
(0.823991 0.373159 -4.46739e-19)
(0.777141 0.383939 3.03259e-19)
(0.773196 0.353398 -3.44696e-19)
(0.820469 0.314747 -2.55874e-19)
(0.778256 0.31479 3.14835e-19)
(1.02627 0.00366819 -1.64201e-19)
(1.02624 0.00341347 3.33669e-19)
(1.02979 -0.00241554 2.10191e-19)
(1.03106 -0.00338269 -2.53047e-19)
(1.03566 -0.000964695 0)
(1.03273 0.000699301 -4.06313e-19)
(0.147893 1.8465 -1.35767e-19)
(0.133333 1.78343 0)
(0.231926 1.80787 -6.6437e-19)
(0.232442 1.78283 5.90782e-19)
(0.264963 1.64707 -3.99402e-19)
(0.293814 1.65182 0)
(-0.306017 1.91682 0)
(-0.273396 1.74057 5.63272e-21)
(-0.216179 1.73837 -5.1147e-21)
(-0.182163 1.79621 5.23022e-21)
(-0.196659 1.91113 -2.88308e-21)
(-0.232807 1.91996 -2.21369e-21)
(0.487359 1.38192 4.43881e-19)
(0.495656 1.38409 -4.76639e-19)
(0.44722 1.27323 4.36452e-19)
(0.439251 1.28986 -2.73031e-20)
(0.613526 1.2924 0)
(0.538652 1.36498 5.59765e-19)
(0.55211 1.38603 -5.42047e-19)
(0.454007 1.2611 -4.18953e-19)
(0.496896 1.22138 0)
(0.546462 1.18664 0)
(0.66456 2.45812 2.44142e-21)
(0.673319 2.47527 5.05693e-19)
(0.724332 2.49378 -3.47296e-19)
(0.629388 2.48184 -1.16387e-19)
(0.565358 2.57732 9.13252e-20)
(0.513517 2.55019 -2.80862e-19)
(0.96096 2.36606 -1.68492e-19)
(1.00312 2.3913 0)
(0.895264 2.13649 -2.2833e-19)
(1.04092 2.6999 0)
(1.04018 2.68521 0)
(0.623451 2.29546 2.59289e-19)
(1.04489 3.1772 4.98147e-19)
(0.917051 3.04641 -4.48151e-19)
(0.294239 0.975022 0)
(0.34768 0.847152 -1.45797e-19)
(0.492003 0.793777 -5.66693e-20)
(0.409523 2.05161 0)
(0.473749 2.79486 -2.74702e-19)
(0.436325 2.56156 0)
(0.654026 0.67274 -2.94137e-19)
(0.726232 0.653797 3.73552e-19)
(0.760326 0.601413 -3.64709e-19)
(0.656906 0.633557 -4.40672e-20)
(0.717111 0.581426 -1.80262e-19)
(1.00668 2.78432 -3.78692e-19)
(1.03769 2.84169 3.07825e-19)
(0.652946 2.19862 2.2291e-20)
(0.602846 1.73756 -4.85002e-20)
(0.704003 1.93006 1.36364e-19)
(0.990492 2.46765 -6.46729e-20)
(0.992657 2.47139 -1.85902e-19)
(0.675095 1.88383 -6.77187e-21)
(0.456975 1.34894 -9.20268e-20)
)
;

boundaryField
{
    wall-4
    {
        type            noSlip;
    }
    velocity-inlet-5
    {
        type            fixedValue;
        value           uniform (1 0 0);
    }
    velocity-inlet-6
    {
        type            fixedValue;
        value           uniform (0 3 0);
    }
    pressure-outlet-7
    {
        type            zeroGradient;
    }
    wall-8
    {
        type            noSlip;
    }
    frontAndBackPlanes
    {
        type            empty;
    }
}


// ************************************************************************* //
