/*--------------------------------*- C++ -*----------------------------------*\
| =========                 |                                                 |
| \\      /  F ield         | OpenFOAM: The Open Source CFD Toolbox           |
|  \\    /   O peration     | Version:  4.0                                   |
|   \\  /    A nd           | Web:      www.OpenFOAM.org                      |
|    \\/     M anipulation  |                                                 |
\*---------------------------------------------------------------------------*/
FoamFile
{
    version     2.0;
    format      ascii;
    class       volVectorField;
    location    "47";
    object      U;
}
// * * * * * * * * * * * * * * * * * * * * * * * * * * * * * * * * * * * * * //

dimensions      [0 1 -1 0 0 0 0];

internalField   nonuniform List<vector> 
918
(
(0.985163 -0.000503522 0)
(0.00501056 2.96625 0)
(0.0071265 0.859785 0)
(0.979703 0.00214768 0)
(-0.011433 2.05785 3.55473e-20)
(-0.00704428 2.94879 -2.51683e-18)
(0.813734 1.15138 4.34699e-19)
(0.229705 0.112468 -1.57214e-20)
(0.999907 -0.000283089 0)
(0.0621522 0.790652 0)
(0.0137334 0.597303 0)
(0.734687 -0.0171097 0)
(0.0111344 2.93031 0)
(0.00281444 2.79483 0)
(-0.0175261 3.15347 7.70749e-19)
(-0.020991 1.90603 -1.33588e-22)
(0.300078 0.033435 1.03596e-18)
(0.188157 1.16199 3.0727e-19)
(0.962757 0.00501728 0)
(-0.0118528 0.532755 0)
(0.0361722 0.150676 -7.43394e-19)
(1.00198 -0.00497908 0)
(1.00022 -0.00979016 0)
(0.975729 -0.00644013 0)
(0.583154 -0.0382711 0)
(0.015474 2.64011 0)
(-0.0148414 2.90999 9.29255e-19)
(0.00942627 0.927316 0)
(-0.00527312 1.17089 0)
(0.0100209 0.905724 0)
(-0.0140227 2.61052 0)
(-0.000705177 2.11343 -2.83863e-20)
(-0.0105185 1.88336 0)
(-0.0206031 2.9876 -9.06108e-23)
(-0.0166883 3.0053 1.95603e-18)
(0.00210466 3.00018 0)
(0.870944 -0.00957347 0)
(0.405025 0.938175 1.8431e-19)
(0.79316 1.16847 -4.89317e-19)
(0.940821 1.00853 5.3079e-19)
(0.665109 1.26048 -1.00209e-19)
(0.665981 1.24372 5.79401e-19)
(0.266596 0.183603 1.53376e-20)
(0.243467 0.0858151 0)
(1.13908 0.551933 0)
(0.234287 0.175331 7.00157e-20)
(0.201131 0.111507 -7.26538e-20)
(0.919819 -0.00744424 0)
(1.00026 0.000156503 0)
(0.999909 0.000336624 0)
(1.00363 -0.00776805 0)
(1.00096 -0.000921384 0)
(1.00017 3.184e-05 0)
(0.0763554 1.81605 -8.01645e-19)
(0.0303642 0.979023 0)
(0.0955632 0.860413 0)
(0.0130737 0.932355 0)
(0.0365435 0.721716 0)
(0.0126557 2.00355 0)
(0.00280517 0.83253 0)
(0.00806853 0.612215 0)
(0.000777137 0.821073 0)
(0.0149458 0.586754 0)
(0.839624 -0.0158518 0)
(0.844757 0.0299996 0)
(0.767637 -0.00601194 0)
(0.813487 0.0395936 0)
(0.704656 -0.0195143 0)
(0.0146912 3.0004 9.33642e-19)
(0.0115077 3.00804 0)
(0.00611472 3.00278 0)
(0.0135566 2.99737 1.06048e-23)
(0.00796638 2.95846 -1.38762e-18)
(0.0144894 2.98198 0)
(0.0108468 2.9036 0)
(0.0247708 2.93037 2.13722e-24)
(0.00452753 2.82502 0)
(0.0310722 2.91619 0)
(-0.0053387 2.74588 0)
(0.307702 3.54941 0)
(-0.131703 3.63075 0)
(0.139254 3.24376 -7.17263e-19)
(-0.0128876 2.97985 0)
(-0.0226131 1.99505 0)
(-0.00775567 2.16792 1.31757e-22)
(-0.0128015 1.91318 -1.14177e-20)
(0.401479 0.143965 -3.58797e-19)
(0.312 0.0188126 -3.47172e-19)
(0.375141 0.152801 -1.07888e-18)
(0.279954 0.0419346 -7.09332e-19)
(0.224999 0.967899 0)
(0.269538 1.30798 -3.62431e-19)
(0.363195 1.24011 6.04266e-19)
(0.987467 0.00855708 0)
(0.941913 0.00583547 0)
(1.0003 0.000578554 0)
(1.00286 0.00930639 0)
(1.00302 0.00846224 -2.77514e-18)
(0.991912 0.0096993 2.09569e-18)
(-0.00574864 0.805504 0)
(-0.00459503 0.535146 0)
(-0.0303157 0.985485 0)
(-0.0161646 0.82925 0)
(0.000715989 0.526503 0)
(0.0612413 0.152976 2.29667e-19)
(0.123458 0.127855 0)
(0.993543 -0.00837841 0)
(0.954433 -0.0065236 0)
(0.75914 0.0466369 0)
(0.694657 0.0572611 0)
(0.664235 -0.0316034 0)
(0.964993 -0.00800843 0)
(0.609947 0.0764181 0)
(0.444454 -0.011095 1.54848e-18)
(-0.0367277 2.86346 6.94848e-19)
(0.0415244 2.91001 0)
(0.0541338 2.88533 0)
(-0.00410404 2.69984 0)
(-0.013313 2.98504 8.81485e-19)
(-0.0179667 2.89497 0)
(-0.0154745 2.98805 -2.73007e-18)
(-0.0132901 2.92516 9.34298e-19)
(-0.0082203 1.34402 0)
(0.0128958 1.37547 0)
(-0.00755188 2.13517 3.55106e-22)
(-0.00596164 2.09356 0)
(-0.0233884 1.89382 0)
(0.938212 -0.00756564 0)
(0.856796 -0.00982932 0)
(0.863345 0.00605857 0)
(0.949353 -0.00794536 0)
(0.883793 -0.00813734 0)
(0.517026 1.13162 -2.32601e-19)
(0.566271 1.18275 0)
(0.369144 0.882952 3.42774e-20)
(0.311328 0.741855 0)
(0.901453 1.04787 -1.4561e-19)
(1.01496 0.854325 2.91752e-19)
(0.35551 1.35722 0)
(0.521205 1.32145 0)
(0.541844 1.27104 0)
(0.117661 0.18339 -3.02902e-19)
(0.298369 0.175182 0)
(0.265983 0.0817951 2.00412e-19)
(0.987238 0.910192 0)
(1.05973 0.764974 0)
(1.08359 0.705921 -2.25709e-19)
(1.11919 0.61143 0)
(1.17139 0.39861 5.57848e-20)
(0.957609 -0.00879515 0)
(0.962427 -0.0100889 0)
(0.901594 -0.0079431 0)
(0.984181 -0.00916565 0)
(0.974666 -0.00936702 0)
(0.937087 -0.00636674 0)
(1.00019 0.00233589 0)
(1.0009 0.00141038 0)
(0.99991 0.000852265 0)
(0.0350108 2.06788 4.42989e-19)
(0.120105 1.75874 0)
(0.0168225 2.18261 6.88134e-19)
(0.0492402 1.86994 -5.79444e-19)
(0.102723 1.1702 -2.51404e-19)
(0.0448849 1.056 0)
(0.143651 1.01198 0)
(0.00720294 0.892016 0)
(0.0141786 0.671184 0)
(-0.00188934 2.23602 -1.10186e-21)
(0.0210084 2.00804 0)
(-0.00248989 2.23896 -4.75072e-20)
(0.0130237 2.01316 8.19701e-20)
(0.00503551 0.863781 0)
(0.00258473 0.84504 0)
(0.00735246 0.637766 0)
(0.00738537 0.807023 0)
(0.00450818 0.572138 0)
(0.936602 0.00938311 0)
(0.847561 -0.0151107 0)
(0.926303 7.10819e-05 0)
(0.841098 -0.0129303 0)
(0.811996 0.000295919 0)
(0.900644 0.020607 0)
(0.876119 0.025219 0)
(0.788872 -0.00240831 0)
(0.0056781 3.06481 -8.73342e-21)
(0.0165523 3.05773 0)
(0.0146118 2.96905 0)
(0.0086419 2.87628 0)
(0.924348 3.96498 0)
(1.23868 3.29797 9.30059e-19)
(0.0697211 3.0721 0)
(-0.0289238 2.90405 0)
(-0.00327983 1.39155 0)
(-0.0248616 1.69877 0)
(-0.0107448 1.53102 0)
(-0.0294681 2.56612 -5.75856e-21)
(-0.0110893 2.25312 0)
(-0.0182977 2.40287 0)
(0.00381015 1.94058 2.24922e-21)
(-0.00389694 2.23848 8.00692e-21)
(-0.00515343 2.20168 1.14617e-20)
(-0.00517287 1.92688 0)
(0.43895 0.125516 5.43941e-19)
(0.353721 0.0102846 -5.33983e-19)
(0.260033 1.58003 0)
(0.273369 0.742003 -3.16959e-19)
(0.177144 1.66593 -1.0606e-18)
(0.226819 1.20802 1.06309e-18)
(0.902156 0.00644443 0)
(0.967467 0.0110819 0)
(0.974593 0.0107864 0)
(0.923393 0.00645086 0)
(-0.00189337 0.803107 0)
(-0.00454958 0.801712 0)
(0.00709139 0.546474 0)
(0.200284 0.167567 6.46204e-19)
(0.167005 0.153375 -7.64329e-19)
(0.166697 0.117496 0)
(1.09018 0.0839335 2.82572e-20)
(1.07253 0.0381133 0)
(1.00706 0.0389208 0)
(0.902816 -0.00658648 0)
(0.480058 0.107164 0)
(0.530627 0.0876998 -2.47599e-18)
(0.395261 0.00640779 9.27136e-19)
(0.00888821 2.98096 7.43799e-19)
(-0.0328754 2.86549 4.63091e-20)
(0.00364587 3.05029 -1.8473e-20)
(0.0201342 3.04333 6.56362e-19)
(-0.0149778 2.99656 3.06653e-20)
(-0.0129663 2.94944 -1.23305e-22)
(-0.0172899 3.01194 -5.66536e-19)
(0.0149071 3.02373 4.10592e-19)
(0.00741717 3.03694 -6.51157e-19)
(0.933129 -0.00153834 0)
(0.938895 -0.00346874 0)
(0.844968 -0.00936166 0)
(0.956648 0.0118201 0)
(0.942894 0.0130963 0)
(0.881704 0.00598955 0)
(0.917641 0.0167082 0)
(0.926285 0.0148149 0)
(0.838562 0.00317184 0)
(0.719959 1.4095 3.70961e-20)
(0.753284 1.51835 0)
(0.186678 0.324918 7.20052e-20)
(0.222363 0.66372 5.81496e-19)
(0.261651 0.721931 -3.38592e-19)
(0.265937 0.533117 6.73023e-19)
(0.339368 0.797982 1.59282e-18)
(0.136569 0.22483 3.74763e-19)
(0.348383 0.16743 7.52327e-19)
(0.325328 0.174185 1.96324e-19)
(0.273416 0.0618755 3.73733e-19)
(1.16071 0.456178 4.41298e-20)
(1.17868 0.252637 3.91721e-20)
(0.00914969 2.22996 2.69042e-19)
(0.0434554 1.93729 0)
(0.966779 0.0286104 0)
(0.940665 0.0133652 0)
(0.865633 -0.0184667 0)
(0.0114092 3.07453 0)
(0.0198774 2.94417 1.20563e-18)
(0.0164206 2.95643 0)
(0.00627816 2.85053 -1.19608e-18)
(0.00626848 3.09156 2.93036e-19)
(0.00699935 3.08211 0)
(0.78626 1.82056 -1.59209e-19)
(1.24652 2.49768 4.05332e-19)
(0.768319 1.96008 -1.23476e-18)
(0.0199648 2.98165 -6.42556e-19)
(0.0353367 3.00071 0)
(-0.0343204 2.87788 0)
(-0.00345544 2.21854 -1.30387e-20)
(-0.00288907 2.24095 -2.36759e-20)
(0.00639306 1.97467 -7.84795e-21)
(0.276938 1.38777 1.03098e-18)
(0.232 0.530822 -7.07181e-19)
(0.0634546 1.9927 7.77918e-19)
(0.135908 1.88059 -9.24207e-19)
(0.179914 1.50023 9.27741e-20)
(0.00467167 3.11891 -1.63522e-18)
(0.0107484 3.11935 1.78621e-18)
(-0.00914913 2.98076 8.13741e-19)
(-0.004486 2.97739 -7.69845e-19)
(-0.0213131 2.88063 -8.28786e-19)
(0.00843492 3.09985 -2.17967e-18)
(0.00186515 3.10492 2.19183e-18)
(0.276478 0.688622 0)
(0.24232 0.678504 -1.2008e-18)
(0.0965972 0.225007 5.32689e-19)
(0.35328 0.923762 1.11282e-18)
(0.191788 0.269619 -1.7157e-18)
(1.17345 0.171783 6.91547e-20)
(1.1792 0.306411 0)
(1.162 0.12044 -1.43417e-20)
(0.000407203 2.24742 -1.75058e-21)
(0.0042546 2.23962 0)
(0.0285099 1.97326 0)
(0.340148 1.2963 -3.70846e-19)
(0.371138 1.13527 -8.02651e-19)
(0.205874 0.36893 1.42939e-18)
(1.00587 -0.010852 0)
(1.00766 -0.0076462 5.12102e-19)
(-0.00682816 1.32097 0)
(-0.024438 1.30474 0)
(1.00222 0.00350578 1.80694e-21)
(1.00366 0.00945359 1.0453e-18)
(-0.0177758 2.5498 7.29294e-21)
(-0.0238401 2.59255 0)
(0.0349109 3.17795 4.28987e-19)
(0.394215 3.48889 0)
(1.16579 0.65135 -6.56085e-20)
(1.0129 0.0131004 -2.14683e-21)
(1.02127 -0.010356 0)
(1.00171 0.00011903 7.56987e-23)
(0.103054 1.35981 0)
(0.144251 2.57486 0)
(0.0245202 1.30052 0)
(0.000893509 2.62351 4.70171e-20)
(-0.0201965 2.58149 1.82761e-20)
(1.00069 0.029072 2.49328e-21)
(1.0622 0.00395591 0)
(1.09566 0.023768 0)
(-0.0229315 1.73885 0)
(-0.01832 2.58969 0)
(0.00173821 1.30019 0)
(0.297551 1.47214 -1.60117e-19)
(1.01127 -0.00964262 0)
(1.00939 -0.0149232 0)
(1.00237 0.000736372 6.54442e-19)
(1.00547 -0.00481927 -7.69117e-19)
(1.00118 -0.000995506 0)
(-0.0051225 1.45817 0)
(-0.00479176 1.36534 0)
(-0.000561745 1.41373 0)
(7.59454e-05 1.28788 0)
(-0.00895921 1.26551 0)
(-0.00257814 1.24617 0)
(1.03472 -0.00628837 0)
(1.02024 0.0156791 -8.87393e-22)
(0.806869 1.26498 2.48521e-19)
(1.00223 0.000310563 -6.51777e-19)
(1.00407 0.00524826 7.63084e-19)
(1.00117 0.00206525 0)
(1.01278 0.0103174 6.48734e-19)
(1.008 0.00829355 -7.85924e-19)
(1.00858 0.0146857 0)
(-0.0240194 2.61939 0)
(-0.0255225 2.59976 -1.26286e-20)
(-0.0233626 2.61346 9.21225e-21)
(1.23065 0.262046 6.09952e-19)
(1.15758 0.0844262 0)
(0.0417986 3.07749 -9.47913e-19)
(0.0649514 2.8546 -6.89576e-20)
(0.140586 3.1923 1.4523e-18)
(0.135457 3.22091 -2.1108e-19)
(0.134357 3.23274 0)
(0.0192467 3.13755 2.45366e-19)
(0.0754143 3.15992 9.35123e-19)
(0.0679271 3.18577 -4.62282e-19)
(0.022285 3.12943 0)
(0.618631 0.279614 0)
(0.548421 0.324548 0)
(1.13463 0.687186 1.56129e-19)
(1.13003 0.808518 -1.48084e-19)
(1.19241 0.575515 0)
(1.22131 0.511482 0)
(1.01612 0.0133271 -1.20937e-18)
(1.01499 0.0142586 1.51802e-18)
(1.02526 -0.00990221 0)
(1.02333 -0.0119111 0)
(1.00643 0.00258352 0)
(1.01041 0.0037013 0)
(1.00457 0.00184228 0)
(1.0098 0.00620413 0)
(1.00783 0.00595217 0)
(1.00451 0.00466746 0)
(0.0915622 1.35712 0)
(0.0855708 1.32755 0)
(0.122616 1.39303 0)
(0.137336 1.40368 0)
(0.144689 2.59957 0)
(0.185158 2.66768 -4.35906e-19)
(0.100289 2.65544 0)
(0.0850415 2.65786 2.10411e-19)
(0.0389286 2.67875 -1.73699e-19)
(0.019088 1.31567 0)
(0.0195822 1.24631 0)
(0.0174236 1.32606 0)
(0.031108 1.26851 0)
(0.00305524 1.98085 -1.40374e-20)
(-0.018622 2.60943 -9.16742e-22)
(-0.00737345 2.66507 3.62697e-20)
(-0.0169597 2.68503 0)
(-0.0214249 2.61593 -4.13762e-20)
(-0.0216906 2.6109 -8.71797e-21)
(0.0124524 1.97964 1.31743e-20)
(-0.00547007 2.39544 1.23009e-21)
(-0.0120349 2.41768 -4.11386e-20)
(1.01075 0.0369564 1.23366e-18)
(1.00606 0.0162066 -1.52378e-18)
(1.00196 0.0439938 -1.23465e-18)
(0.979005 0.0221236 1.57503e-18)
(1.06342 0.00775373 0)
(1.04873 -0.00857446 0)
(1.09278 0.0338065 0)
(1.0732 0.0120678 0)
(1.07098 -0.000115501 0)
(1.13817 0.0809206 0)
(1.10959 0.0431308 0)
(1.11266 0.0311346 0)
(-0.0235407 2.43996 -1.18658e-22)
(-0.0086299 2.01494 0)
(-0.0142741 2.22186 0)
(-0.0196048 2.61006 -3.98647e-21)
(-0.0174285 2.6186 -1.29981e-22)
(0.00847534 1.56591 -2.19801e-20)
(0.00192897 1.49508 2.23514e-20)
(-0.00513638 1.38426 0)
(-0.00805036 1.39008 0)
(-0.00975665 1.38423 0)
(0.00498507 1.30279 0)
(0.0140051 1.23796 0)
(0.377911 1.48821 2.59086e-19)
(0.418563 1.49097 1.40012e-19)
(0.597825 2.45007 -2.41077e-19)
(0.400772 2.54479 7.11151e-19)
(0.350976 2.06503 7.33837e-20)
(1.021 -0.00818317 0)
(1.01547 -0.00978467 0)
(1.01489 -0.015512 0)
(1.00744 -0.00114926 0)
(1.00494 -0.000934319 0)
(1.00776 -0.00474545 0)
(1.00924 -0.00369 0)
(1.01418 -0.00445139 0)
(1.02098 0.016156 1.18417e-18)
(1.0179 0.0156625 -1.51672e-18)
(1.02138 0.0181334 -1.19296e-18)
(1.0192 0.0168559 1.49068e-18)
(0.77015 1.31515 0)
(0.706322 1.36618 2.33191e-19)
(0.883535 1.21269 8.62525e-20)
(0.928465 1.15985 -1.14725e-19)
(1.15798 2.60666 2.90752e-19)
(0.791961 0.116215 6.04153e-19)
(1.16065 0.106205 0)
(1.20756 0.190541 -4.90198e-19)
(1.19292 0.152317 -2.07638e-20)
(1.00503 0.1516 0)
(0.133415 2.95976 5.55955e-19)
(0.110387 2.86556 -1.20387e-18)
(0.0200583 2.37499 8.09175e-19)
(0.0903834 -0.0635256 -3.58826e-19)
(0.339255 3.4183 -2.06453e-19)
(0.193606 3.31128 0)
(0.236935 3.35282 2.68871e-19)
(0.243453 3.03287 -1.83876e-18)
(0.337912 3.19198 0)
(0.00732248 3.12068 4.77422e-20)
(0.0176138 3.12949 -5.59844e-19)
(0.0158224 3.12561 8.24006e-19)
(0.0353938 3.1395 0)
(0.0334975 3.15056 0)
(1.21548 2.60522 0)
(0.544208 0.824519 -5.36327e-19)
(1.05415 0.98197 3.35638e-21)
(0.988551 1.06567 0)
(0.842663 0.968156 -1.15708e-19)
(1.07973 0.880676 2.84914e-20)
(0.355224 0.371661 -9.23255e-19)
(0.673188 0.311852 -2.04313e-20)
(0.620535 0.220065 4.27101e-19)
(0.571533 0.358657 3.15168e-20)
(0.480483 0.321234 -1.26849e-18)
(0.641775 0.32284 0)
(0.700489 0.415136 7.25379e-19)
(0.709483 0.417185 0)
(0.605395 0.349731 0)
(0.558584 0.267255 0)
(0.809986 0.613958 4.27862e-19)
(1.23078 0.284366 -5.15197e-19)
(1.22898 0.422 0)
(1.23895 0.361855 0)
(0.726142 0.18881 6.33912e-19)
(0.856434 0.538432 -3.93491e-19)
(0.75261 0.508768 6.97578e-19)
(0.951485 0.431968 -7.66155e-19)
(1.01954 0.0147857 8.13436e-19)
(1.01774 0.0142638 -8.18346e-19)
(1.01592 0.0154766 0)
(1.03618 -0.00583012 0)
(1.02971 -0.0085083 -7.66744e-19)
(1.02776 -0.0120429 7.5915e-19)
(1.02497 0.0100759 0)
(1.02356 0.0137315 0)
(1.01141 0.00409418 0)
(1.01425 0.0090547 0)
(1.01514 0.00403046 0)
(1.01424 0.00280026 0)
(0.0627056 1.34255 0)
(0.0648659 1.29753 0)
(0.143623 1.36743 -4.91819e-21)
(0.27103 1.46912 8.22951e-20)
(0.164275 1.44044 1.70911e-19)
(0.19626 1.44747 -2.80127e-19)
(0.16469 1.39219 0)
(0.130283 1.59477 -8.40315e-20)
(0.114167 1.56849 0)
(0.348526 2.01725 -1.06683e-19)
(0.344775 2.34964 6.28685e-19)
(0.18699 1.4523 7.32747e-20)
(0.261428 1.38221 1.88698e-20)
(0.196139 1.3718 -1.52706e-20)
(0.271849 1.32487 -1.10166e-19)
(0.239509 1.57758 0)
(0.262015 1.61696 1.18148e-19)
(0.0298378 2.26433 -3.68162e-20)
(0.0430322 2.66825 0)
(0.0646916 2.40157 1.50439e-19)
(0.0609639 2.42184 0)
(0.0691712 2.67102 -2.33059e-19)
(0.0491403 2.6985 0)
(0.0277998 1.41646 9.94955e-21)
(0.0343583 1.46923 0)
(0.0285786 1.38646 0)
(0.0244265 1.38865 -1.12259e-20)
(0.00108657 2.65117 -1.72271e-20)
(0.0295409 2.69653 1.98061e-19)
(0.0112757 2.72112 1.39589e-21)
(0.00457484 1.82755 1.25209e-20)
(-0.00245598 1.67919 4.81342e-21)
(0.0121118 1.2909 0)
(0.0201108 1.22043 0)
(0.0461918 1.57771 3.59543e-22)
(0.0288655 1.45208 -6.2148e-21)
(0.0363659 1.51674 7.55488e-21)
(0.0387447 1.60159 0)
(-0.0257859 2.27193 6.61749e-20)
(-0.0264468 2.55559 -2.73381e-20)
(-0.0134402 2.4501 1.10844e-22)
(0.000489014 1.8441 -1.5178e-20)
(-0.0225062 2.50033 -4.98332e-21)
(-0.0188775 2.44206 2.80111e-20)
(1.01928 0.0209653 -8.08317e-19)
(1.01532 0.0267015 8.13217e-19)
(1.01437 0.0161725 0)
(1.01231 0.0707305 1.14211e-18)
(0.989952 0.0594668 -1.28476e-18)
(0.947546 0.0441622 1.4391e-18)
(1.01361 0.10873 -1.52266e-19)
(1.04248 -0.00587632 0)
(1.05068 -0.00165136 7.31798e-19)
(1.03877 -0.00998252 -7.3335e-19)
(1.07042 0.0415117 -4.35815e-20)
(1.06411 0.0229098 3.7563e-19)
(1.06306 0.0548771 0)
(1.05329 0.0484081 -1.35012e-19)
(1.0324 0.0415411 0)
(1.02578 0.0380571 0)
(1.02782 0.0130673 0)
(1.02412 0.0158377 0)
(1.03997 0.0317548 2.78011e-19)
(1.03887 0.0263766 -6.14257e-19)
(1.05066 0.0332243 -2.94806e-19)
(1.04806 0.0332285 -3.2453e-19)
(1.07027 0.0628022 6.34213e-19)
(1.09537 0.0509591 0)
(1.10348 0.0945345 0)
(-0.020045 2.27761 4.19551e-20)
(-0.0179713 2.01834 -4.70204e-22)
(-0.0141422 2.02504 0)
(-0.0246427 2.45178 -4.17486e-20)
(-0.0192518 2.40823 5.90128e-22)
(-0.0307699 2.48143 3.45336e-21)
(-0.0192618 2.62489 7.22666e-21)
(-0.0197079 2.56734 -1.14819e-21)
(-0.0182316 2.51684 2.72957e-21)
(-0.0147287 2.62062 8.44239e-22)
(-0.0196605 2.62161 4.18259e-22)
(0.00241294 1.47977 -3.48929e-22)
(0.0100238 1.61486 -1.81694e-20)
(0.363697 1.43353 -1.08269e-19)
(0.364605 1.3712 4.11952e-20)
(0.64923 1.41585 -2.25627e-19)
(0.517578 1.48282 -1.37433e-19)
(0.573779 1.45002 0)
(0.593526 2.42681 2.09566e-19)
(0.661278 2.42018 3.39584e-19)
(0.410746 2.51757 8.57905e-20)
(0.402704 2.54411 -6.25335e-19)
(0.511297 2.48789 6.18549e-19)
(0.553035 2.46387 0)
(0.489019 2.51961 -5.65179e-19)
(0.247646 2.59269 1.17115e-18)
(0.353834 2.56617 -7.99161e-20)
(0.283817 2.65414 -1.61323e-18)
(0.945828 2.38114 7.29984e-19)
(0.837503 2.38533 0)
(1.01104 0.000462957 2.6548e-20)
(1.01528 -0.00545951 -2.15449e-20)
(1.01763 -0.00359318 -3.93548e-19)
(1.01498 -0.000934589 3.95594e-19)
(1.0124 0.00112925 0)
(0.637968 1.28741 0)
(0.663029 1.18403 0)
(0.773287 1.09634 0)
(0.655594 1.14799 0)
(1.18728 2.62084 5.89496e-20)
(1.07602 2.36748 0)
(0.838911 2.18011 3.84304e-21)
(0.826122 2.44465 0)
(0.923276 2.53623 -4.24958e-19)
(0.958886 2.49193 2.82797e-19)
(0.811816 0.174541 0)
(0.77044 0.148241 1.64192e-19)
(0.918586 0.145545 9.56404e-19)
(0.834094 0.147838 -3.57738e-19)
(0.797711 0.0840428 -1.10355e-18)
(1.07865 0.234845 -9.15923e-19)
(0.992905 0.292771 -1.60558e-20)
(0.928294 0.294137 8.79167e-19)
(1.0053 0.223764 7.35024e-19)
(0.951663 0.190648 -1.26951e-18)
(0.916331 0.192185 1.58658e-19)
(0.954944 0.256406 -3.38126e-19)
(0.93103 0.218197 0)
(0.992547 0.185022 6.26504e-19)
(1.04586 0.187488 0)
(1.0416 0.214308 0)
(1.1049 0.11775 2.94912e-19)
(1.06967 0.175691 -1.43885e-20)
(1.0732 0.235927 -1.60901e-19)
(1.10227 0.202287 0)
(1.0228 0.0456781 6.27235e-19)
(1.04004 0.0583921 7.82083e-19)
(1.03383 0.0442543 -6.22206e-19)
(1.04294 0.065111 -5.24097e-19)
(1.01893 0.0729355 -8.03031e-19)
(0.988084 0.158389 0)
(0.998894 0.105131 0)
(0.965468 0.0669405 -5.12835e-19)
(0.912023 0.0902089 2.0143e-19)
(1.0388 0.104217 7.24965e-19)
(1.06861 0.120585 -8.51157e-19)
(1.07541 0.153684 7.60534e-19)
(1.02888 0.143573 0)
(1.0746 0.108875 0)
(1.05485 0.0904099 -3.48281e-19)
(1.04433 0.0949971 -5.9338e-19)
(0.5831 1.07452 1.41088e-19)
(0.611558 1.4014 -4.26341e-20)
(1.15751 2.73649 -2.28974e-19)
(1.22373 3.07808 1.88051e-21)
(1.24965 2.71961 -1.33276e-19)
(1.27917 2.70323 -2.91029e-20)
(1.20734 2.34408 -1.0473e-20)
(1.21121 2.98218 -9.42174e-20)
(1.23083 2.94754 2.35999e-19)
(1.21439 3.23149 -1.43239e-19)
(1.37482 2.96334 1.98043e-19)
(1.36471 2.8816 0)
(0.552659 0.832502 -5.04093e-20)
(0.129131 1.2445 5.79127e-19)
(0.539539 0.418741 5.97446e-19)
(0.37842 0.167522 6.57786e-19)
(0.512448 0.35773 7.16713e-19)
(0.545291 0.45872 -1.15438e-18)
(0.547425 0.459372 9.43307e-19)
(0.489292 0.372366 -3.61584e-19)
(0.398756 0.304198 8.19153e-19)
(0.732418 0.254691 -3.63645e-19)
(0.692711 0.278974 0)
(0.66494 0.197385 8.35516e-21)
(0.734653 0.505214 3.81533e-19)
(0.706707 0.473755 -1.3911e-18)
(0.61533 0.457333 1.41566e-20)
(0.62157 0.445255 0)
(0.68313 0.722328 4.05165e-19)
(0.844197 0.772147 4.09918e-19)
(0.76694 0.855003 -4.79238e-19)
(0.889582 0.808275 -1.62081e-19)
(0.919023 0.851559 -4.00898e-20)
(0.926601 0.851409 4.10566e-20)
(0.855542 0.647309 -7.09141e-19)
(0.937427 0.702957 1.50577e-19)
(0.99437 0.717577 0)
(0.985532 0.694659 -2.05289e-19)
(1.0226 0.332273 2.20781e-19)
(1.14416 0.299629 3.0148e-19)
(1.06535 0.271613 3.74701e-19)
(1.00929 0.363798 -4.44813e-19)
(1.05923 0.429167 0)
(1.11742 0.41486 0)
(0.918029 0.365631 5.27388e-21)
(0.84124 0.297951 0)
(0.881205 0.293307 4.14349e-19)
(0.908704 0.300979 -5.43186e-21)
(0.945484 0.434518 2.13554e-18)
(0.904859 0.491892 5.51782e-19)
(0.907548 0.457241 -5.87112e-19)
(0.827029 0.441576 6.28707e-19)
(0.809917 0.434021 3.77535e-19)
(0.779267 0.415348 -3.71178e-19)
(1.02723 -0.000397948 6.55595e-19)
(1.01999 -8.41066e-05 0)
(1.01849 0.000852133 4.27419e-19)
(1.0217 -0.00170966 -9.68234e-19)
(1.0223 0.00429299 4.70292e-19)
(1.02038 0.0112545 -9.84954e-19)
(1.02132 0.0106426 0)
(1.02062 0.0108927 -2.05239e-19)
(1.01598 0.00770887 5.14889e-19)
(1.01669 0.0104695 -2.56908e-19)
(1.01739 0.00981714 1.89209e-19)
(0.0288747 1.31804 0)
(0.0332179 1.35974 0)
(0.0436264 1.32034 0)
(0.043574 1.27558 0)
(0.0704278 1.38272 -1.50899e-20)
(0.0776042 1.353 1.16397e-20)
(0.110666 1.51668 -2.14659e-20)
(0.0934176 1.364 1.70698e-21)
(0.0333058 1.45689 -1.46316e-20)
(0.0371022 1.44964 1.14991e-20)
(0.061941 1.36739 -8.01914e-21)
(0.0541161 1.3693 2.02239e-20)
(0.0472033 1.34504 2.8151e-21)
(0.0386213 1.3682 -4.79825e-22)
(0.105794 2.37285 -1.66276e-19)
(0.0948373 2.41966 0)
(0.169141 2.04838 1.1287e-19)
(0.108218 1.70898 4.5848e-20)
(0.230199 2.04418 -9.27195e-20)
(0.203532 2.43751 0)
(0.26435 2.38831 -6.11225e-19)
(0.302993 2.38624 4.33178e-19)
(0.229279 2.0045 -2.57941e-19)
(0.152671 2.16512 1.72383e-19)
(0.142426 2.27651 0)
(0.0171941 1.8757 -2.48723e-20)
(-0.00100705 2.39406 -7.20864e-20)
(0.00505695 2.14913 0)
(0.0107226 2.45694 -1.35082e-20)
(0.0262537 2.30182 2.39418e-20)
(0.016846 1.39798 -2.67759e-21)
(0.0178614 1.38461 4.93723e-20)
(0.0188678 1.38886 -1.77561e-20)
(0.0216425 1.38888 -1.18564e-20)
(0.0273055 1.42039 0)
(0.0159906 1.37085 0)
(0.0102998 1.29156 -2.4747e-20)
(0.012455 1.36165 6.23654e-21)
(0.0155009 1.36251 0)
(0.0130028 1.28375 -1.81366e-20)
(0.0217259 1.21736 3.80098e-20)
(1.04051 0.0114685 0)
(1.04649 0.00774913 -6.86657e-20)
(1.03854 0.0213596 -4.9524e-19)
(1.04811 0.0202427 0)
(1.05204 0.0201107 0)
(1.03627 0.0116067 -6.70379e-21)
(1.03096 0.0114468 7.95571e-19)
(1.03174 0.0163536 9.64312e-19)
(1.02571 0.0202458 0)
(1.02282 0.0206429 0)
(1.0351 0.0251311 4.93765e-19)
(1.02595 0.0263522 0)
(1.02418 0.0263705 0)
(-0.013744 2.01764 0)
(0.0092432 1.64569 -3.63641e-21)
(0.00106982 1.75264 -2.3879e-20)
(0.00539181 1.37186 0)
(-0.000362704 1.54356 -7.28067e-21)
(0.00111936 1.44954 6.2234e-21)
(0.00188507 1.3819 0)
(0.391541 1.66578 0)
(0.367848 1.30031 -7.83299e-20)
(0.302625 1.34269 0)
(0.421408 1.30136 1.82582e-20)
(0.46727 1.45926 0)
(0.448353 1.40454 1.87604e-20)
(1.03644 2.68496 -1.5496e-20)
(0.966947 2.41083 -9.17673e-19)
(0.918503 2.19452 1.04245e-18)
(0.851143 2.37747 2.43051e-19)
(0.848203 2.49595 0)
(0.918119 2.49184 0)
(0.929144 2.37481 0)
(0.907963 2.36259 -9.46194e-19)
(0.68944 2.46278 -3.9772e-19)
(0.801678 2.45266 -9.82135e-20)
(0.81245 2.42641 7.477e-20)
(0.695745 2.39431 0)
(0.800515 2.39 0)
(0.75903 2.40267 -3.69659e-19)
(0.769336 2.48611 0)
(0.623757 1.09913 0)
(0.486362 0.920909 -5.08015e-19)
(0.560899 0.956847 -3.22964e-20)
(0.524708 1.05317 0)
(0.525454 1.00049 7.62478e-19)
(0.789727 0.879734 -1.34547e-19)
(0.797841 1.01719 0)
(0.772163 0.97929 1.94598e-19)
(0.657555 1.03591 0)
(0.661503 0.94067 0)
(1.16566 2.75902 -2.33648e-19)
(1.14339 2.82225 -9.89017e-20)
(0.932642 2.34061 1.02972e-19)
(0.900271 2.31984 -8.41821e-20)
(1.13084 2.73257 0)
(1.08426 2.70253 1.01329e-19)
(1.09096 2.48628 -3.19214e-19)
(0.985606 2.23678 -3.07422e-20)
(0.498644 1.35026 0)
(0.513215 1.07597 -1.24431e-19)
(0.571419 1.17069 0)
(0.857793 0.23406 0)
(0.780489 0.188741 0)
(0.717488 0.148872 0)
(0.850981 0.23593 -6.52186e-19)
(0.754591 0.225269 3.80501e-19)
(0.928181 0.0764903 -4.16027e-19)
(0.943302 0.123091 0)
(0.923482 0.136317 1.78477e-19)
(0.860848 0.111123 7.16441e-19)
(0.828056 0.0686225 -4.48342e-19)
(1.16057 3.35674 -7.19894e-19)
(1.20891 3.27604 0)
(1.15845 3.38512 -1.48558e-18)
(0.646262 3.546 1.26176e-18)
(0.870245 3.11376 6.95741e-20)
(0.521032 0.835275 6.08841e-19)
(0.432795 0.832545 0)
(0.327991 0.456424 -1.5323e-19)
(0.457048 0.669001 8.70265e-19)
(0.541814 0.422997 -2.07289e-19)
(0.511236 0.489696 2.39399e-19)
(0.665365 0.51738 5.14888e-19)
(0.697939 0.546171 0)
(0.651175 0.595625 0)
(0.608155 0.537887 0)
(0.997326 0.604293 9.7577e-20)
(0.911387 0.540914 -5.36801e-19)
(0.937705 0.574173 4.06977e-19)
(0.969518 0.512276 -4.14812e-19)
(1.0775 0.485299 0)
(1.0847 0.574728 -1.02889e-19)
(0.849745 0.39457 -8.6154e-19)
(0.852492 0.383558 -1.06419e-18)
(0.794288 0.383102 6.71984e-19)
(0.794897 0.355252 -6.86789e-19)
(0.843894 0.317022 -5.37343e-19)
(0.793413 0.31529 6.59397e-19)
(1.02667 0.00576746 -5.01155e-19)
(1.02639 0.0059923 1.02031e-18)
(1.0293 -3.79845e-05 6.35497e-19)
(1.03347 0.000865642 -7.6536e-19)
(1.03357 0.00875794 0)
(1.03004 0.00943236 -1.24564e-18)
(0.0615422 1.64409 2.50513e-20)
(0.0443093 1.5783 0)
(0.0840714 1.69449 1.50834e-19)
(0.0946738 1.67609 -1.33301e-19)
(0.0871853 1.53162 4.02572e-20)
(0.0848414 1.51783 0)
(0.0132605 1.67496 0)
(0.000251545 1.48079 4.68326e-22)
(0.00461387 1.42595 -4.21145e-22)
(1.48933e-06 1.53907 6.70701e-21)
(0.00464905 1.87576 -3.85601e-22)
(-0.00540505 1.92941 4.03325e-21)
(0.498423 1.3708 -2.77897e-19)
(0.491769 1.37368 3.05012e-19)
(0.447717 1.2976 -3.55524e-20)
(0.436654 1.29317 8.05569e-21)
(0.629452 1.3026 0)
(0.545895 1.38999 9.68382e-20)
(0.561104 1.39759 -9.42919e-20)
(0.459116 1.28325 3.45451e-20)
(0.514855 1.2388 0)
(0.567253 1.20586 0)
(0.656208 2.42197 5.84379e-19)
(0.670808 2.46115 1.27378e-18)
(0.716038 2.47219 -8.77401e-19)
(0.61336 2.44694 -2.04418e-19)
(0.560958 2.53862 2.86035e-19)
(0.509777 2.51201 -7.62701e-19)
(0.977787 2.38067 -5.83302e-19)
(1.0137 2.39371 0)
(0.924964 2.17261 -6.74545e-19)
(1.05458 2.68191 0)
(1.05685 2.6687 0)
(0.609028 2.26846 -1.20173e-19)
(1.0417 3.16004 1.33545e-19)
(0.912601 3.03011 -3.71255e-20)
(0.27691 0.890968 0)
(0.312007 0.745778 -3.21014e-19)
(0.47609 0.703383 -3.2323e-19)
(0.385976 2.01448 0)
(0.465766 2.78297 -4.84329e-20)
(0.420886 2.54641 0)
(0.701049 0.67013 -8.58085e-19)
(0.783958 0.676596 1.16304e-18)
(0.80413 0.619533 -1.15051e-18)
(0.679744 0.632583 -1.10752e-19)
(0.734762 0.588164 -4.57289e-19)
(1.00452 2.76196 -1.01553e-19)
(1.04308 2.81967 -1.65659e-19)
(0.638097 2.13985 6.7707e-19)
(0.594546 1.70887 -4.82687e-19)
(0.699425 1.90265 -4.07174e-19)
(0.990496 2.44549 -1.13869e-19)
(0.99603 2.43798 2.98534e-19)
(0.65858 1.83872 2.82363e-20)
(0.450854 1.32999 1.45825e-19)
)
;

boundaryField
{
    wall-4
    {
        type            noSlip;
    }
    velocity-inlet-5
    {
        type            fixedValue;
        value           uniform (1 0 0);
    }
    velocity-inlet-6
    {
        type            fixedValue;
        value           uniform (0 3 0);
    }
    pressure-outlet-7
    {
        type            zeroGradient;
    }
    wall-8
    {
        type            noSlip;
    }
    frontAndBackPlanes
    {
        type            empty;
    }
}


// ************************************************************************* //
