/*--------------------------------*- C++ -*----------------------------------*\
| =========                 |                                                 |
| \\      /  F ield         | OpenFOAM: The Open Source CFD Toolbox           |
|  \\    /   O peration     | Version:  4.0                                   |
|   \\  /    A nd           | Web:      www.OpenFOAM.org                      |
|    \\/     M anipulation  |                                                 |
\*---------------------------------------------------------------------------*/
FoamFile
{
    version     2.0;
    format      ascii;
    class       volScalarField;
    location    "65";
    object      p;
}
// * * * * * * * * * * * * * * * * * * * * * * * * * * * * * * * * * * * * * //

dimensions      [0 2 -2 0 0 0 0];

internalField   nonuniform List<scalar> 
918
(
0.557293
1.18569
0.00127141
0.556738
-0.012562
1.15269
-0.509227
0.665827
0.537491
-0.110018
-0.047652
0.539227
1.01337
0.778209
-1.12357
-0.00996849
0.651938
-0.381093
0.536602
-0.0573877
0.693498
0.544032
0.547057
0.537635
0.59858
0.753311
0.894206
0.0227502
0.00913832
0.00469259
-0.0118828
-0.0389258
-0.0329749
1.03635
1.08741
1.1101
0.505253
0.333432
-0.374745
-0.44743
-0.435379
-0.544151
0.662691
0.661124
-0.209694
0.669282
0.671833
0.524518
0.536861
0.537772
0.538793
0.537777
0.539158
0.404417
-0.11002
-0.141315
-0.0914993
-0.0843344
0.0536294
-0.0493603
-0.0513882
-0.0461037
-0.0460779
0.454387
0.533534
0.529988
0.543754
0.554117
1.12524
1.09718
1.12331
1.03692
1.05343
0.991381
0.963969
0.799816
0.821526
0.762318
0.7499
-1.55526
-2.50688
-0.533721
-0.283209
-0.0106085
-0.00760651
-0.00191547
0.648796
0.649998
0.651421
0.653993
1.0805
-0.378507
-0.478922
0.536743
0.535553
0.543875
0.544575
0.540595
0.539685
-0.0489688
-0.0460915
-0.0482384
-0.0540541
-0.0523276
0.682367
0.682948
0.538164
0.535168
0.561529
0.581382
0.571726
0.278182
0.609206
0.625508
0.584256
0.746469
0.739809
0.749096
0.867838
0.830641
0.931394
0.954733
0.0165569
4.24263e-05
-0.0150224
-0.0194931
-0.0182709
0.501082
0.49362
0.521056
0.50869
0.511198
0.25012
0.116676
0.418405
0.443266
-0.293611
-0.359639
-0.428616
-0.459049
-0.567218
0.612153
0.658958
0.657131
-0.220246
-0.148338
-0.281289
-0.0752808
-0.138103
0.514778
0.521796
0.516792
0.532351
0.526816
0.52878
0.541132
0.538202
0.539762
0.466638
0.590307
0.330558
0.295175
-0.242748
-0.156004
-0.242847
-0.0731902
-0.0692027
0.0675934
0.0931335
0.0405003
0.0288189
-0.063254
-0.0552903
-0.0590992
-0.0442661
-0.0445894
0.447142
0.435943
0.467082
0.474647
0.520001
0.521543
0.526149
0.523936
0.914873
0.937254
0.944694
0.918494
-3.49671
-6.27884
0.0414947
0.178075
-0.00671341
-0.00933359
0.00202514
-0.00566765
0.00034395
-0.00187973
-0.00679719
-0.00820786
-0.00322462
-0.00203241
0.642987
0.644174
1.0026
1.00931
0.978354
0.931197
0.52496
0.527031
0.532528
0.528411
-0.0440358
-0.044602
-0.0433315
0.67515
0.680388
0.678084
0.239738
0.150126
0.329195
0.358294
0.636804
0.625726
0.635256
0.644914
0.679881
0.962142
0.980257
0.978593
0.986847
1.03092
1.04735
1.01262
0.480488
0.490492
0.485427
0.524153
0.521932
0.52283
0.518817
0.52
0.51804
-0.0338164
-0.413851
0.490593
0.507562
0.492813
0.495334
0.692349
0.771017
0.653786
0.655827
0.65519
-0.00632031
-0.0647859
0.250429
0.216382
0.386711
0.423109
0.402084
0.886029
0.846431
0.896476
0.870002
0.831301
0.857481
-0.365387
-1.8651
-0.984072
0.527245
0.341951
0.428936
0.0106204
-0.00620393
-0.00171161
1.00201
1.0744
0.646137
0.821055
0.823764
0.717282
0.74807
0.803678
0.72787
0.763621
0.799605
0.781281
0.568134
0.503672
0.519619
0.840218
0.896021
0.120153
0.0588719
0.0149285
0.111905
0.169166
0.1433
1.03449
0.949875
1.02014
0.534929
0.535649
-0.00487338
-0.0185134
0.539894
0.539949
-0.0120955
-0.00123753
0.412059
-0.831385
0.100105
0.528472
0.518375
0.535508
-0.0941594
0.355848
-0.0479628
0.0485968
-0.00767677
0.530744
0.465527
0.424605
0.00112419
-0.0188625
-0.0491898
-0.212977
0.532598
0.530902
0.534976
0.535918
0.536599
-0.0180944
-0.0135844
-0.0100111
-0.046033
-0.0401336
-0.0514406
0.499414
0.518648
-0.169718
0.535123
0.537257
0.537076
0.530336
0.535967
0.534219
-0.00974072
-0.0150461
-0.0173717
0.220239
0.351851
0.651483
0.739001
0.622722
0.399179
0.164268
0.555196
0.61838
0.52414
0.677689
0.654944
0.666421
0.165661
0.0154722
0.174298
0.115903
0.526333
0.525049
0.516628
0.513589
0.530375
0.528488
0.533048
0.530068
0.533019
0.5344
-0.0501686
-0.0782988
-0.0868244
-0.15432
0.310631
0.571946
0.254407
0.284296
0.142185
-0.0425462
-0.0429541
-0.0466885
-0.0548282
0.00105621
-0.0228782
0.0434795
0.0438058
0.0155878
-0.0102078
-0.00705143
-0.0179156
-0.0129135
0.524481
0.524295
0.527597
0.536537
0.47518
0.478968
0.443797
0.464555
0.449817
0.388554
0.423829
0.399064
-0.00480734
0.00386549
-0.00192311
-0.0166368
-0.0134278
-0.0323205
-0.0291049
-0.0248952
-0.0208463
-0.0274734
-0.043356
-0.0454443
-0.170904
-0.286694
0.988967
0.910328
0.137391
0.521744
0.528202
0.524962
0.529887
0.533014
0.533816
0.531525
0.528073
0.518924
0.520389
0.517335
0.518342
-0.101352
-0.242498
-0.0706894
-0.144784
0.145124
0.627767
0.363747
0.299366
0.294596
0.523076
0.917006
0.700597
0.673576
0.678496
-0.342431
0.0466391
-0.278848
0.33615
0.16347
0.652216
0.701141
0.722405
0.670435
0.623516
-0.10143
0.556172
-0.0719092
-0.0199339
0.181347
0.0579343
0.665912
0.642066
0.648199
0.659077
0.674324
0.646629
0.632823
0.628882
0.653848
0.656085
0.48533
0.250999
0.201941
0.163451
0.642411
0.519477
0.571244
0.491243
0.521575
0.524147
0.522791
0.504252
0.511846
0.507362
0.51396
0.517518
0.526092
0.526561
0.521833
0.523965
-0.0575202
-0.0632421
-0.0280352
-0.135495
-0.128731
-0.190743
-0.0609561
0.0768465
0.0379933
0.237916
0.342121
0.0534151
-0.0570024
-0.0298167
0.0127181
0.180938
0.208873
0.074684
0.162412
0.153405
0.134999
0.237518
0.241049
-0.0269849
-0.0299837
-0.0339907
-0.0356653
0.0194199
0.090403
0.100005
-0.00523956
-0.0113385
-0.0409395
-0.0417054
-0.02074
-0.0270689
-0.0221961
0.00795156
-0.0519511
-0.0192108
-0.00521734
-0.00222706
-0.00402578
-0.00961542
0.518441
0.520628
0.520665
0.527127
0.540928
0.555898
0.520454
0.497412
0.488186
0.491209
0.464045
0.474375
0.470082
0.483757
0.504761
0.51419
0.512065
0.514935
0.496931
0.498769
0.485269
0.488937
0.463925
0.444667
0.432759
-0.0415443
-0.00267097
-0.0107617
-0.0369402
-0.00709266
-0.0192197
-0.0098015
0.00925412
-0.00705722
-0.00864259
-0.0189532
-0.0250993
-0.0245155
-0.0727395
0.0139198
-0.183718
-0.21955
-0.292405
0.891077
1.01518
0.810687
0.583768
0.603877
0.846961
0.931639
0.543812
0.736159
0.75932
0.586937
0.854563
0.526593
0.52619
0.523789
0.523269
0.52449
-0.00679313
0.0991914
0.0981602
0.160967
0.276847
0.388575
0.318984
0.194325
0.324565
0.327044
0.620813
0.632977
0.588386
0.612477
0.613112
0.425444
0.500986
0.552814
0.513078
0.56531
0.586724
0.540743
0.57354
0.523567
0.478781
0.474784
0.424837
0.444465
0.420238
0.403323
0.515283
0.49329
0.503622
0.494318
0.514477
0.542428
0.538947
0.561821
0.576527
0.498069
0.453014
0.462379
0.492635
0.453849
0.46931
0.48553
0.232225
0.134018
0.217073
-0.0684989
0.00304722
-0.00973672
-0.0582658
-0.00742276
0.276928
-0.414482
-0.390928
-1.01836
0.503298
0.954003
0.600478
0.574412
0.673773
0.657312
0.663088
0.679771
0.680729
0.630746
0.640755
0.645512
0.601994
0.623243
0.641869
0.638193
0.5251
0.384126
0.382814
0.331281
0.201455
0.241044
0.437779
0.361691
0.286675
0.286872
0.457141
0.343949
0.41369
0.447514
0.378982
0.333539
0.535995
0.601938
0.595519
0.568817
0.480779
0.493392
0.517541
0.551322
0.575763
0.606558
0.513354
0.519294
0.520524
0.517995
0.515278
0.518358
0.518626
0.521179
0.521796
0.5248
0.523856
-0.0495408
-0.0360615
-0.0497187
-0.0597155
-0.0195669
-0.0216386
0.0237959
0.00832055
-0.0140903
-0.00863225
-0.0320453
-0.0367352
-0.0329417
-0.0244589
0.101209
0.113989
0.0980245
0.0583771
0.251777
0.381105
0.455562
0.330898
0.224698
0.247789
0.267152
-0.0111617
0.013735
0.000833408
0.040483
0.0328164
-0.0358963
-0.039439
-0.0363226
-0.029327
-0.0200029
-0.0360469
-0.0409986
-0.0318423
-0.0366182
-0.0394507
-0.0431379
0.499674
0.493112
0.49479
0.488591
0.487321
0.501788
0.506087
0.50805
0.513611
0.516068
0.505849
0.511577
0.515657
-0.0103549
-0.0333374
-0.0370022
-0.027286
-0.029687
-0.0274243
-0.0288698
0.12383
0.0546066
0.0587019
0.010961
-0.121066
-0.0630317
0.491628
0.490336
0.479792
0.721169
0.570449
0.491007
0.58799
0.693759
0.276337
0.473172
0.308151
0.888768
0.785153
0.931536
0.542691
0.245489
0.408559
0.451961
0.264995
0.34041
0.325495
0.214472
0.245267
0.282962
0.382018
0.265503
0.242149
-0.00111889
0.189293
0.301622
0.283426
0.408146
0.468852
0.266259
0.185912
0.141078
0.605696
0.625201
0.638512
0.611242
0.63237
0.580138
0.57221
0.587982
0.596163
0.590115
-0.746546
-0.45308
-1.39958
-0.721583
-0.266748
0.533757
0.504871
0.769541
0.646794
0.684526
0.669672
0.628461
0.598006
0.621329
0.644798
0.342433
0.453206
0.428443
0.433923
0.336312
0.266809
0.56441
0.561155
0.593728
0.617023
0.589609
0.618921
0.511188
0.510916
0.51036
0.506595
0.504861
0.507238
0.0578654
0.0256703
0.0644314
0.0460213
0.0226618
0.00935252
-0.00807565
-0.0180072
-0.0253601
-0.0251043
-0.0110236
-0.00699889
0.17159
0.109356
0.0298353
0.0589799
-0.0018191
-0.0703756
-0.0892448
0.0158298
0.111968
0.102153
0.405704
0.655481
0.475488
0.642972
0.48543
0.541247
0.46833
0.459754
0.484757
0.379621
0.460086
0.247794
-0.259832
-0.168951
0.793744
0.805144
0.581207
0.40524
0.173641
0.352475
0.542612
0.47314
0.508799
0.577842
0.565378
0.0278257
0.0861999
0.370874
0.597756
0.240061
0.231196
0.224721
0.408229
0.32695
)
;

boundaryField
{
    wall-4
    {
        type            zeroGradient;
    }
    velocity-inlet-5
    {
        type            zeroGradient;
    }
    velocity-inlet-6
    {
        type            zeroGradient;
    }
    pressure-outlet-7
    {
        type            fixedValue;
        value           uniform 0;
    }
    wall-8
    {
        type            zeroGradient;
    }
    frontAndBackPlanes
    {
        type            empty;
    }
}


// ************************************************************************* //
