/*--------------------------------*- C++ -*----------------------------------*\
| =========                 |                                                 |
| \\      /  F ield         | OpenFOAM: The Open Source CFD Toolbox           |
|  \\    /   O peration     | Version:  4.0                                   |
|   \\  /    A nd           | Web:      www.OpenFOAM.org                      |
|    \\/     M anipulation  |                                                 |
\*---------------------------------------------------------------------------*/
FoamFile
{
    version     2.0;
    format      ascii;
    class       volVectorField;
    location    "65";
    object      U;
}
// * * * * * * * * * * * * * * * * * * * * * * * * * * * * * * * * * * * * * //

dimensions      [0 1 -1 0 0 0 0];

internalField   nonuniform List<vector> 
918
(
(0.98516 -0.000507018 0)
(0.00501376 2.96625 0)
(0.00823884 0.889033 0)
(0.979704 0.00214585 0)
(-0.0120715 2.06158 3.76587e-20)
(-0.00704864 2.94879 -2.46744e-18)
(0.819272 1.16252 4.48053e-19)
(0.123915 0.0731117 -1.48201e-20)
(0.999909 -0.000277063 0)
(0.0649338 0.730563 0)
(0.0129604 0.515402 0)
(0.733811 -0.00864697 0)
(0.0111398 2.93033 0)
(0.00274179 2.79524 0)
(-0.0178154 3.14936 7.79847e-19)
(-0.0219009 1.91356 8.26577e-21)
(0.281196 0.0481854 1.01843e-18)
(0.188851 1.14142 3.1633e-19)
(0.962728 0.00501718 0)
(0.00752658 0.484818 0)
(-0.0180092 0.096128 -6.9859e-19)
(1.00197 -0.00497548 0)
(1.00023 -0.00978493 0)
(0.975738 -0.00643889 0)
(0.598516 0.024528 0)
(0.0151773 2.64079 0)
(-0.0148541 2.91 9.07546e-19)
(0.00964456 0.937119 0)
(-0.0167985 1.18003 0)
(0.0116301 0.919863 0)
(-0.01425 2.59488 0)
(-0.00102762 2.11592 -3.00757e-20)
(-0.0113052 1.89354 0)
(-0.0205951 2.98761 -8.86876e-23)
(-0.0166833 3.00529 1.91751e-18)
(0.00210117 3.00017 0)
(0.871355 -0.00965204 0)
(0.40281 0.933451 1.80319e-19)
(0.804046 1.17694 -5.11047e-19)
(0.955877 1.02183 5.55515e-19)
(0.672926 1.26874 -1.03855e-19)
(0.673872 1.24324 5.97988e-19)
(0.162808 0.127589 1.44583e-20)
(0.146423 0.0547203 0)
(1.15851 0.562225 0)
(0.137846 0.109182 6.58404e-20)
(0.0998752 0.0646067 -6.83185e-20)
(0.919901 -0.00745692 0)
(1.00027 0.000161158 0)
(0.999909 0.000338536 0)
(1.00363 -0.00776 0)
(1.00096 -0.000918972 0)
(1.00017 3.66548e-05 0)
(0.0732682 1.82625 -7.73048e-19)
(0.0311495 0.945453 0)
(0.099652 0.810151 0)
(0.0107943 0.896709 0)
(0.0377027 0.652656 0)
(0.00632523 2.0135 0)
(-0.00277362 0.807761 0)
(0.0119841 0.526772 0)
(-0.00214042 0.797702 0)
(0.0071896 0.506985 0)
(0.841617 -0.0156965 0)
(0.839618 0.0318708 0)
(0.764788 -0.00817688 0)
(0.802741 0.0326627 0)
(0.701888 0.00531213 0)
(0.0146847 3.00041 9.14618e-19)
(0.011492 3.0081 0)
(0.00610325 3.00275 0)
(0.0135541 2.99738 1.03766e-23)
(0.00795438 2.95846 -1.35935e-18)
(0.0145018 2.98198 0)
(0.010886 2.90355 0)
(0.0242903 2.93057 2.08015e-24)
(0.00467569 2.82524 0)
(0.0307997 2.91656 0)
(-0.00480868 2.7457 0)
(0.305433 3.54256 0)
(-0.131573 3.62331 0)
(0.13785 3.23942 -7.2572e-19)
(-0.0136296 2.97757 0)
(-0.0256329 1.98683 0)
(-0.00711782 2.1684 -8.15248e-21)
(-0.0158658 1.92182 2.34435e-21)
(0.348998 0.143734 -3.53652e-19)
(0.310933 0.0277022 -3.43584e-19)
(0.304877 0.14982 -1.05867e-18)
(0.243969 0.0561349 -6.8868e-19)
(0.22916 0.982969 0)
(0.272229 1.29246 -3.67437e-19)
(0.365645 1.22692 6.12848e-19)
(0.987437 0.00857163 0)
(0.941861 0.00582697 0)
(1.0003 0.000580875 0)
(1.00286 0.00930928 0)
(1.00301 0.0084711 -2.7456e-18)
(0.991908 0.00969581 2.07338e-18)
(-0.00962169 0.789216 0)
(0.00810442 0.494391 0)
(-0.0441075 1.0061 0)
(-0.0237747 0.831154 0)
(0.00634202 0.485644 0)
(-0.0205128 0.112912 2.15891e-19)
(0.0694712 0.0784201 0)
(0.993553 -0.00837098 0)
(0.954464 -0.00653107 0)
(0.743931 0.0311665 0)
(0.680371 0.026544 0)
(0.663415 0.0128275 0)
(0.970775 -0.00738888 0)
(0.594553 0.0689863 0)
(0.449865 -0.010127 1.54296e-18)
(-0.0369745 2.8623 6.69063e-19)
(0.0409586 2.91022 0)
(0.0537368 2.88603 0)
(-0.00412544 2.70046 0)
(-0.0131589 2.98513 8.59132e-19)
(-0.0178765 2.89499 0)
(-0.0154489 2.98803 -2.66443e-18)
(-0.0132564 2.92517 9.12433e-19)
(-0.0267857 1.34447 0)
(-0.00286933 1.37342 0)
(-0.00741815 2.13327 4.83804e-22)
(-0.00632776 2.09503 0)
(-0.023946 1.90112 0)
(0.938602 -0.00739094 0)
(0.8575 -0.00997376 0)
(0.863272 0.00563567 0)
(0.9496 -0.00781561 0)
(0.884063 -0.008191 0)
(0.514288 1.12642 -2.27695e-19)
(0.563461 1.17747 0)
(0.367399 0.878387 3.36459e-20)
(0.310024 0.737046 0)
(0.916495 1.05964 -1.53163e-19)
(1.0343 0.868697 3.11135e-19)
(0.358468 1.35384 0)
(0.525578 1.32474 0)
(0.548542 1.26343 0)
(0.120897 0.18473 -3.02341e-19)
(0.18605 0.129169 0)
(0.180652 0.0749472 1.9155e-19)
(1.00531 0.923368 0)
(1.07913 0.777286 0)
(1.10423 0.718782 -2.46966e-19)
(1.13793 0.621714 0)
(1.18861 0.405705 5.71631e-20)
(0.957761 -0.00870187 0)
(0.962515 -0.0100338 0)
(0.901757 -0.00798452 0)
(0.984204 -0.0091462 0)
(0.974712 -0.00933232 0)
(0.937137 -0.00637301 0)
(1.00019 0.0023399 0)
(1.0009 0.00141505 0)
(0.999909 0.000854979 0)
(0.0355301 2.07355 4.28425e-19)
(0.11887 1.76909 0)
(0.018027 2.18752 6.58507e-19)
(0.0461544 1.88033 -5.49132e-19)
(0.106307 1.14748 -2.59042e-19)
(0.0492627 1.02645 0)
(0.143191 0.977095 0)
(0.00249638 0.854173 0)
(0.0153311 0.595226 0)
(-0.00119899 2.24229 -8.31191e-22)
(0.0156875 2.01816 0)
(-0.00207372 2.24459 -3.01933e-20)
(0.00762167 2.02258 4.72532e-20)
(-0.00105093 0.830831 0)
(-0.00297638 0.817821 0)
(0.00928348 0.554164 0)
(-0.00560896 0.791406 0)
(0.0057951 0.496692 0)
(0.938407 0.00977905 0)
(0.85015 -0.0146358 0)
(0.927592 0.000419933 0)
(0.842544 -0.0128918 0)
(0.812188 -0.00236723 0)
(0.898487 0.0227666 0)
(0.87237 0.0283323 0)
(0.788476 -0.0063681 0)
(0.00558251 3.06472 -8.52562e-21)
(0.0166292 3.05775 0)
(0.0146149 2.96901 0)
(0.00863124 2.87621 0)
(0.920944 3.95535 0)
(1.2343 3.28884 9.26716e-19)
(0.0689813 3.07 0)
(-0.0294536 2.90287 0)
(-0.00845871 1.39493 0)
(-0.0306268 1.69511 0)
(-0.0173749 1.5294 0)
(-0.030161 2.55299 -8.02648e-21)
(-0.0138216 2.24384 0)
(-0.0198815 2.39165 0)
(-0.00179507 1.94893 8.78554e-22)
(-0.00366821 2.24028 -6.46896e-21)
(-0.0054901 2.20343 -2.54758e-21)
(-0.00967165 1.93408 0)
(0.401276 0.124836 5.39948e-19)
(0.359421 0.0169409 -5.29817e-19)
(0.258898 1.58511 0)
(0.277388 0.755986 -3.15877e-19)
(0.177105 1.67243 -1.04913e-18)
(0.22601 1.21978 1.05143e-18)
(0.902008 0.00636454 0)
(0.967391 0.0111341 0)
(0.974541 0.0108133 0)
(0.923296 0.00641104 0)
(-0.00967014 0.789155 0)
(-0.00831589 0.786116 0)
(0.00554832 0.48899 0)
(0.124787 0.095755 6.09875e-19)
(0.110329 0.0850069 -7.21204e-19)
(0.0829525 0.0640934 0)
(1.09872 0.0861644 2.71079e-20)
(1.08081 0.0394444 0)
(1.01303 0.0399712 0)
(0.907147 -0.00552256 0)
(0.453379 0.105862 0)
(0.513551 0.0875297 -2.46494e-18)
(0.40547 0.0113455 9.21332e-19)
(0.00871464 2.98049 7.18516e-19)
(-0.0331979 2.86489 4.5299e-20)
(0.0036427 3.05027 -1.80535e-20)
(0.0201913 3.04333 6.4207e-19)
(-0.0149844 2.99657 2.99685e-20)
(-0.0129683 2.94947 -1.20536e-22)
(-0.0172799 3.01191 -5.54506e-19)
(0.0149252 3.02364 4.01726e-19)
(0.00743001 3.03692 -6.36536e-19)
(0.934012 -0.00120066 0)
(0.93948 -0.00319242 0)
(0.845998 -0.00946321 0)
(0.956517 0.0119216 0)
(0.94263 0.0132666 0)
(0.881569 0.00584114 0)
(0.916444 0.0178505 0)
(0.925741 0.0151574 0)
(0.838528 0.00192878 0)
(0.716766 1.40361 4.0086e-20)
(0.750055 1.51229 0)
(0.181488 0.315395 7.06083e-20)
(0.228377 0.668734 5.68466e-19)
(0.262326 0.72051 -3.32161e-19)
(0.26309 0.521517 6.60899e-19)
(0.345935 0.810683 1.59126e-18)
(0.140397 0.229945 3.75745e-19)
(0.261813 0.152153 7.28994e-19)
(0.221532 0.146524 1.88977e-19)
(0.212149 0.0669654 3.58096e-19)
(1.17767 0.463739 6.26135e-20)
(1.19339 0.256738 5.79257e-20)
(0.0101609 2.23618 2.53602e-19)
(0.0403816 1.94839 0)
(0.970569 0.0293345 0)
(0.943283 0.0139083 0)
(0.868985 -0.0179212 0)
(0.0113963 3.07447 0)
(0.0197449 2.94405 1.17499e-18)
(0.016417 2.95638 0)
(0.0063318 2.85057 -1.16581e-18)
(0.00621756 3.09096 2.85114e-19)
(0.00712947 3.08229 0)
(0.78283 1.81386 -1.58894e-19)
(1.24212 2.48965 4.03736e-19)
(0.764827 1.95323 -1.22959e-18)
(0.0198083 2.98105 -6.18514e-19)
(0.0350415 2.99976 0)
(-0.0344212 2.87724 0)
(-0.00425777 2.22375 -1.31344e-20)
(-0.00327203 2.24477 9.17253e-21)
(0.000877461 1.98422 -7.25498e-21)
(0.278213 1.39428 1.02535e-18)
(0.238593 0.550227 -7.03061e-19)
(0.0637967 1.99818 7.63132e-19)
(0.135343 1.88436 -9.10905e-19)
(0.180259 1.51158 9.50258e-20)
(0.00217228 3.11916 -1.77294e-18)
(0.0130993 3.11903 1.9231e-18)
(-0.00903712 2.98111 7.88664e-19)
(-0.00429417 2.97748 -7.43577e-19)
(-0.0210275 2.88081 -8.0324e-19)
(0.00856818 3.10026 -2.12079e-18)
(0.00221462 3.105 2.09542e-18)
(0.281941 0.694999 0)
(0.248304 0.684086 -1.18134e-18)
(0.0959023 0.225167 5.24488e-19)
(0.35763 0.937707 1.11301e-18)
(0.195512 0.275921 -1.71599e-18)
(1.18517 0.174888 6.31407e-20)
(1.19381 0.311346 0)
(1.17353 0.12263 -6.62361e-21)
(0.00133306 2.25438 -1.47742e-21)
(0.00479995 2.24587 0)
(0.0245789 1.9838 0)
(0.340092 1.30309 -3.68168e-19)
(0.374674 1.14963 -8.00264e-19)
(0.210142 0.377821 1.4268e-18)
(1.00588 -0.0108304 0)
(1.00767 -0.00763469 5.06504e-19)
(-0.0222697 1.325 0)
(-0.0384668 1.32333 0)
(1.00221 0.00351337 1.81122e-21)
(1.00366 0.00946815 1.03417e-18)
(-0.018462 2.53745 1.01706e-20)
(-0.0238819 2.58012 0)
(0.0341372 3.1772 4.08861e-19)
(0.391058 3.48437 0)
(1.17432 0.662868 -5.78175e-20)
(1.01285 0.0131381 -2.13613e-21)
(1.02134 -0.0102906 0)
(1.0017 0.000129813 7.85908e-23)
(0.113153 1.36909 0)
(0.143944 2.56943 0)
(0.0246664 1.3084 0)
(-0.000396853 2.62131 2.84124e-20)
(-0.0215343 2.57872 3.98203e-21)
(0.998309 0.0280651 1.64006e-21)
(1.06308 0.00464099 0)
(1.09756 0.0250939 0)
(-0.0291699 1.73797 0)
(-0.0185421 2.58039 0)
(-0.00493679 1.31056 0)
(0.312108 1.48143 -1.67933e-19)
(1.0113 -0.00961738 0)
(1.0094 -0.0149157 0)
(1.00237 0.000752729 6.47307e-19)
(1.00547 -0.00480069 -7.60794e-19)
(1.00118 -0.00097136 0)
(-0.0143559 1.4619 0)
(-0.00720732 1.37324 0)
(-0.00785403 1.41929 0)
(-0.0087623 1.29825 0)
(-0.0184959 1.28538 0)
(-0.00956393 1.26795 0)
(1.03503 -0.00604114 0)
(1.01967 0.0155813 -8.21625e-22)
(0.82084 1.27331 2.59621e-19)
(1.00223 0.000319994 -6.44817e-19)
(1.00406 0.00526038 7.54918e-19)
(1.00118 0.00207482 0)
(1.01273 0.0103597 6.41735e-19)
(1.00799 0.00831286 -7.77552e-19)
(1.00856 0.0146961 0)
(-0.0237278 2.60831 0)
(-0.0256406 2.58776 -1.82047e-20)
(-0.0230396 2.60189 1.29531e-20)
(1.23736 0.267586 5.81787e-19)
(1.16224 0.0869869 0)
(0.0407467 3.07795 -9.14271e-19)
(0.0647892 2.85632 -6.64925e-20)
(0.138308 3.1924 1.39653e-18)
(0.133389 3.22016 -1.98131e-19)
(0.132706 3.23111 0)
(0.0195998 3.13751 2.36024e-19)
(0.0745259 3.15995 9.0173e-19)
(0.0671685 3.18534 -4.4487e-19)
(0.0224444 3.12964 0)
(0.588829 0.281637 0)
(0.519942 0.301487 0)
(1.14555 0.698917 1.31974e-19)
(1.13947 0.820313 -1.16367e-19)
(1.20217 0.585741 0)
(1.22998 0.520359 0)
(1.01604 0.013374 -1.1962e-18)
(1.01498 0.0142797 1.50161e-18)
(1.02538 -0.00980737 0)
(1.02344 -0.011852 0)
(1.00642 0.00263233 0)
(1.01041 0.00374258 0)
(1.00458 0.00186552 0)
(1.00979 0.00624996 0)
(1.00781 0.00596594 0)
(1.00451 0.0047172 0)
(0.102211 1.36748 0)
(0.0980768 1.33063 0)
(0.133094 1.40494 0)
(0.151181 1.40975 0)
(0.14565 2.59442 0)
(0.185367 2.66448 -4.23792e-19)
(0.101597 2.64983 0)
(0.0853156 2.65273 1.98235e-19)
(0.0387203 2.67566 -1.48846e-19)
(0.0148751 1.32071 0)
(0.0216725 1.24438 0)
(0.0177247 1.33043 0)
(0.0346109 1.26802 0)
(0.00397045 1.98419 3.07223e-21)
(-0.0203121 2.60642 -1.83592e-20)
(-0.00848102 2.66262 1.40541e-20)
(-0.018429 2.68178 0)
(-0.0232116 2.61231 -5.57312e-21)
(-0.0233684 2.60721 1.25235e-20)
(0.0128393 1.98264 5.69166e-22)
(-0.00711118 2.39445 2.46313e-20)
(-0.0131714 2.41648 -1.59393e-20)
(1.01007 0.0391572 1.21243e-18)
(1.00528 0.0176283 -1.50933e-18)
(1.00421 0.0450894 -1.2341e-18)
(0.97702 0.0355905 1.55289e-18)
(1.06431 0.00845893 0)
(1.04943 -0.00823984 0)
(1.09452 0.0352626 0)
(1.07445 0.0130224 0)
(1.07228 0.0005592 0)
(1.14048 0.0833849 0)
(1.11199 0.0447526 0)
(1.11579 0.0326194 0)
(-0.0254923 2.4303 1.00422e-21)
(-0.0140585 2.01224 0)
(-0.0168605 2.21519 0)
(-0.0204356 2.60105 -1.06105e-20)
(-0.0176583 2.611 1.81084e-22)
(0.00307125 1.57322 -3.52357e-20)
(-0.0058504 1.50149 3.58963e-20)
(-0.0151538 1.39031 0)
(-0.0187424 1.39695 0)
(-0.0238349 1.39161 0)
(-0.00314378 1.31164 0)
(0.00924856 1.23762 0)
(0.386575 1.49891 2.72938e-19)
(0.429724 1.49981 1.44698e-19)
(0.597546 2.44437 -2.4041e-19)
(0.398416 2.54147 7.07752e-19)
(0.34947 2.05317 7.17213e-20)
(1.02107 -0.00810725 0)
(1.01551 -0.00974432 0)
(1.01492 -0.0155022 0)
(1.00741 -0.00107586 0)
(1.00493 -0.000909166 0)
(1.00778 -0.00468746 0)
(1.00927 -0.00361072 0)
(1.01422 -0.00437115 0)
(1.02043 0.0163467 1.1721e-18)
(1.01766 0.0155227 -1.49792e-18)
(1.0207 0.0183877 -1.18123e-18)
(1.01829 0.0163691 1.47941e-18)
(0.784277 1.32465 0)
(0.720735 1.37479 2.45849e-19)
(0.896158 1.22403 9.71035e-20)
(0.942026 1.16904 -1.29208e-19)
(1.15463 2.59986 2.79206e-19)
(0.769437 0.123527 5.99796e-19)
(1.16361 0.10918 0)
(1.2126 0.194708 -4.68171e-19)
(1.19974 0.155487 -1.99243e-20)
(1.00624 0.157241 0)
(0.129506 2.95879 5.31882e-19)
(0.105778 2.86482 -1.15677e-18)
(0.0142618 2.37309 7.73352e-19)
(0.0955098 -0.151873 -3.30161e-19)
(0.33599 3.4144 -2.14845e-19)
(0.190868 3.30908 0)
(0.234781 3.34973 2.79805e-19)
(0.240074 3.03119 -1.77731e-18)
(0.33354 3.18941 0)
(0.00715893 3.12088 4.60921e-20)
(0.0165988 3.1298 -5.43272e-19)
(0.0153222 3.12584 7.99605e-19)
(0.0351784 3.13973 0)
(0.0334653 3.15038 0)
(1.2104 2.59752 0)
(0.545629 0.805872 -5.28486e-19)
(1.06575 0.993367 -7.94658e-21)
(1.0003 1.07806 0)
(0.853353 0.973633 -1.10085e-19)
(1.09129 0.894379 2.79344e-20)
(0.314127 0.338026 -8.54518e-19)
(0.659241 0.324334 -1.74514e-20)
(0.561875 0.222701 4.07632e-19)
(0.546191 0.337066 2.99355e-20)
(0.438233 0.277688 -1.20314e-18)
(0.619999 0.325438 0)
(0.707355 0.422661 6.94163e-19)
(0.710321 0.425974 0)
(0.584707 0.339706 0)
(0.514766 0.247798 0)
(0.825562 0.624103 4.11396e-19)
(1.23852 0.28992 -4.89709e-19)
(1.23854 0.42867 0)
(1.24686 0.369257 0)
(0.688129 0.195524 6.20331e-19)
(0.872705 0.552775 -3.76671e-19)
(0.770052 0.524515 6.70114e-19)
(0.962429 0.445534 -7.37352e-19)
(1.0192 0.0149637 8.03121e-19)
(1.01758 0.0143511 -8.08712e-19)
(1.0159 0.0153784 0)
(1.0365 -0.00558289 0)
(1.02991 -0.0083649 -7.57595e-19)
(1.02796 -0.0119546 7.50061e-19)
(1.02486 0.0105301 0)
(1.02336 0.014291 0)
(1.01141 0.00416184 0)
(1.01419 0.00915455 0)
(1.01515 0.00417382 0)
(1.01426 0.00289459 0)
(0.069857 1.35084 0)
(0.0747563 1.29665 0)
(0.149297 1.38615 1.00966e-20)
(0.282393 1.47989 8.94205e-20)
(0.177843 1.4508 1.88219e-19)
(0.210855 1.45587 -3.0688e-19)
(0.174718 1.41098 0)
(0.136793 1.59919 -7.24929e-20)
(0.118746 1.57821 0)
(0.345946 2.00291 -1.04284e-19)
(0.342079 2.33879 6.15457e-19)
(0.194026 1.46379 6.31936e-20)
(0.269302 1.39631 2.32469e-20)
(0.202672 1.38925 -1.87855e-20)
(0.278657 1.33885 -1.04107e-19)
(0.243536 1.57924 0)
(0.267776 1.61637 1.13085e-19)
(0.0309184 2.25969 -2.88399e-20)
(0.0438349 2.66478 0)
(0.0666627 2.39602 1.35228e-19)
(0.0633739 2.41683 0)
(0.0697008 2.66633 -2.1968e-19)
(0.0492652 2.69494 0)
(0.0266818 1.43553 3.18566e-20)
(0.0352961 1.4875 0)
(0.0285805 1.40289 0)
(0.0235595 1.40767 -3.59464e-20)
(0.000446207 2.64889 -1.71532e-20)
(0.0298162 2.69414 1.67112e-19)
(0.0103371 2.71926 1.17813e-21)
(0.0034262 1.83618 -2.67875e-21)
(-0.00201268 1.68984 -3.21563e-21)
(0.011358 1.30024 0)
(0.0206908 1.22138 0)
(0.0474976 1.59362 -2.58975e-20)
(0.0323297 1.46897 -3.3183e-20)
(0.037159 1.53289 4.10343e-20)
(0.0412246 1.61734 0)
(-0.029252 2.2696 9.52722e-20)
(-0.0302755 2.54801 -4.0005e-20)
(-0.0160816 2.44556 3.81644e-21)
(-0.00315298 1.85219 3.24521e-21)
(-0.0253037 2.4976 1.9156e-21)
(-0.0203784 2.44124 9.46108e-22)
(1.01851 0.0212379 -8.03481e-19)
(1.01427 0.0279019 8.05135e-19)
(1.01326 0.0171156 0)
(1.01121 0.0710856 1.12725e-18)
(0.991817 0.0596103 -1.26322e-18)
(0.950482 0.056381 1.41221e-18)
(1.01428 0.112259 -1.50457e-19)
(1.04294 -0.00557567 0)
(1.05134 -0.00119774 7.22543e-19)
(1.03921 -0.0097574 -7.24009e-19)
(1.07181 0.0428523 -4.29609e-20)
(1.06497 0.02417 3.70472e-19)
(1.06343 0.0570395 0)
(1.0539 0.0502787 -1.33221e-19)
(1.03254 0.0431625 0)
(1.02594 0.0400122 0)
(1.02786 0.0136411 0)
(1.02379 0.0162834 0)
(1.04036 0.0330379 2.74414e-19)
(1.03902 0.0278066 -6.06902e-19)
(1.05132 0.0345917 -2.90847e-19)
(1.04844 0.0346798 -3.20354e-19)
(1.07159 0.0653 6.25041e-19)
(1.09708 0.0530599 0)
(1.10608 0.0971942 0)
(-0.024906 2.27469 5.33458e-20)
(-0.0239772 2.01773 7.59134e-22)
(-0.0200519 2.02519 0)
(-0.0265567 2.44381 -5.31045e-20)
(-0.0215469 2.39994 -1.71644e-21)
(-0.0328316 2.47147 5.24109e-21)
(-0.0207056 2.6199 -1.132e-20)
(-0.0228705 2.56168 2.71001e-23)
(-0.0212324 2.5133 -2.96351e-21)
(-0.01583 2.61394 1.00372e-20)
(-0.0208611 2.61586 -1.06746e-20)
(-0.00568284 1.49473 -6.14098e-22)
(0.0038506 1.62165 -3.31924e-20)
(0.371624 1.44671 -1.15393e-19)
(0.371449 1.38083 3.72527e-20)
(0.661308 1.42554 -2.37832e-19)
(0.528841 1.49264 -1.42393e-19)
(0.587173 1.45811 0)
(0.593347 2.42139 2.07102e-19)
(0.661724 2.41676 3.37684e-19)
(0.41123 2.51092 8.78202e-20)
(0.402524 2.5354 -6.10304e-19)
(0.51017 2.47661 6.14664e-19)
(0.55325 2.45816 0)
(0.488091 2.51569 -5.59688e-19)
(0.24851 2.58812 1.1445e-18)
(0.354804 2.56014 -7.74747e-20)
(0.284034 2.64981 -1.58762e-18)
(0.948013 2.37467 7.27236e-19)
(0.8382 2.37975 0)
(1.01107 0.000526071 2.62594e-20)
(1.01535 -0.00537147 -2.13008e-20)
(1.01767 -0.00347833 -3.89041e-19)
(1.01504 -0.000839779 3.91146e-19)
(1.01246 0.00125892 0)
(0.647283 1.29055 0)
(0.670248 1.18416 0)
(0.78419 1.10271 0)
(0.663341 1.14772 0)
(1.18469 2.61343 5.97126e-20)
(1.07265 2.36067 0)
(0.834264 2.1656 3.83548e-21)
(0.823676 2.43094 0)
(0.921733 2.52468 -4.22288e-19)
(0.956948 2.48081 2.80907e-19)
(0.79826 0.184051 0)
(0.741504 0.15649 1.62841e-19)
(0.908161 0.152141 9.47988e-19)
(0.823402 0.156186 -3.54779e-19)
(0.779024 0.0908893 -1.09585e-18)
(1.0826 0.24122 -8.92499e-19)
(1.00007 0.303579 -1.75964e-20)
(0.929376 0.307171 8.60153e-19)
(1.00795 0.234082 7.21598e-19)
(0.948389 0.198862 -1.25422e-18)
(0.911121 0.203092 1.56841e-19)
(0.949429 0.269494 -3.32769e-19)
(0.926837 0.23046 0)
(0.995885 0.195081 6.18594e-19)
(1.04754 0.194306 0)
(1.04506 0.222517 0)
(1.10752 0.121351 2.89956e-19)
(1.07182 0.181149 -1.50033e-20)
(1.07609 0.241292 -1.57849e-19)
(1.1019 0.207331 0)
(1.02346 0.0464155 6.16881e-19)
(1.0392 0.060264 7.71879e-19)
(1.0347 0.0464933 -6.12424e-19)
(1.04307 0.0679204 -5.17595e-19)
(1.02057 0.0757043 -7.93968e-19)
(0.98582 0.160563 0)
(0.991014 0.106163 0)
(0.965189 0.0739252 -5.01752e-19)
(0.905467 0.098227 1.99364e-19)
(1.03992 0.107896 7.16312e-19)
(1.06976 0.124954 -8.36327e-19)
(1.07641 0.157392 7.4682e-19)
(1.03101 0.150774 0)
(1.07536 0.112482 0)
(1.05453 0.0934321 -3.42819e-19)
(1.04332 0.0978088 -5.84975e-19)
(0.578863 1.05624 1.39906e-19)
(0.604682 1.38168 -4.1385e-20)
(1.15456 2.72919 -2.27503e-19)
(1.22023 3.07153 2.01412e-21)
(1.24638 2.71224 -1.24212e-19)
(1.27493 2.69555 -3.17132e-20)
(1.2024 2.33578 -1.10346e-20)
(1.20794 2.9754 -9.36603e-20)
(1.22804 2.94089 2.34677e-19)
(1.21037 3.22445 -1.42811e-19)
(1.37008 2.95537 1.97345e-19)
(1.35881 2.87346 0)
(0.562633 0.814595 -5.03243e-20)
(0.111264 1.22713 5.69628e-19)
(0.556648 0.362069 5.58302e-19)
(0.395093 0.109498 6.06664e-19)
(0.481573 0.317922 6.81822e-19)
(0.544724 0.435617 -1.10125e-18)
(0.546829 0.432137 9.01623e-19)
(0.46777 0.319676 -3.42459e-19)
(0.348336 0.24807 7.75403e-19)
(0.712259 0.268658 -3.58161e-19)
(0.672109 0.292521 0)
(0.614392 0.207943 6.83801e-21)
(0.742125 0.506631 3.65475e-19)
(0.719159 0.477427 -1.3297e-18)
(0.622652 0.446138 1.15049e-20)
(0.620752 0.436866 0)
(0.692265 0.717998 3.97101e-19)
(0.854024 0.778585 3.95539e-19)
(0.77767 0.861274 -4.62816e-19)
(0.899806 0.81597 -1.54699e-19)
(0.930895 0.861285 -3.74007e-20)
(0.937997 0.861029 3.83014e-20)
(0.866402 0.658731 -6.8096e-19)
(0.94643 0.712529 1.43651e-19)
(1.00581 0.727818 0)
(0.996823 0.704454 -1.94094e-19)
(1.02976 0.343951 2.12363e-19)
(1.14936 0.306077 2.88175e-19)
(1.07049 0.278508 3.64775e-19)
(1.01875 0.376343 -4.3106e-19)
(1.06721 0.438863 0)
(1.12314 0.420991 0)
(0.923794 0.380124 1.62196e-21)
(0.840679 0.316198 0)
(0.885181 0.311773 4.06776e-19)
(0.91078 0.315728 -7.92257e-21)
(0.956606 0.448879 2.05405e-18)
(0.917497 0.504301 5.28775e-19)
(0.922517 0.471086 -5.63396e-19)
(0.838726 0.457532 6.04374e-19)
(0.822847 0.450185 3.62039e-19)
(0.794067 0.432934 -3.56136e-19)
(1.0274 -0.00020563 6.48088e-19)
(1.02 9.26417e-05 0)
(1.01854 0.00101918 4.22596e-19)
(1.02174 -0.00152015 -9.57287e-19)
(1.02236 0.00451999 4.65063e-19)
(1.02031 0.011546 -9.73865e-19)
(1.0212 0.0109085 0)
(1.02044 0.0111184 -2.02977e-19)
(1.01593 0.00785585 5.09227e-19)
(1.01659 0.0106424 -2.54094e-19)
(1.01729 0.00999241 1.87122e-19)
(0.028317 1.32417 0)
(0.0350552 1.37761 0)
(0.0464192 1.32623 0)
(0.0505294 1.27371 0)
(0.074973 1.40005 -5.03494e-20)
(0.0820087 1.36698 2.24016e-20)
(0.118838 1.54426 -1.34112e-20)
(0.103262 1.38937 -6.22571e-21)
(0.0375253 1.47468 1.70137e-20)
(0.0416543 1.46847 -1.30388e-20)
(0.0662659 1.38589 -9.94029e-21)
(0.0580281 1.38725 4.56667e-20)
(0.0495027 1.36263 6.77882e-21)
(0.041116 1.38449 3.58384e-21)
(0.107771 2.36453 -1.49309e-19)
(0.0967964 2.4128 0)
(0.170959 2.03875 1.08306e-19)
(0.114249 1.70565 3.93091e-20)
(0.234246 2.03459 -9.00525e-20)
(0.200662 2.42583 0)
(0.26281 2.37577 -6.06662e-19)
(0.302861 2.37344 4.28754e-19)
(0.22986 1.99466 -2.50059e-19)
(0.155758 2.1539 1.70216e-19)
(0.141997 2.26118 0)
(0.0191263 1.87875 4.68909e-21)
(0.000303974 2.38947 -3.40365e-20)
(0.00684331 2.14748 0)
(0.01165 2.45268 -1.3637e-20)
(0.0285976 2.29582 9.23647e-21)
(0.0150821 1.41507 -6.83813e-21)
(0.012897 1.39753 1.14568e-19)
(0.0129051 1.40365 -3.76658e-20)
(0.0208511 1.40767 -3.21153e-20)
(0.0250906 1.43923 0)
(0.00908002 1.38506 0)
(0.00185655 1.29696 -4.54853e-20)
(0.00529125 1.3769 1.28881e-20)
(0.00886315 1.37692 0)
(0.00769646 1.28903 -3.42028e-20)
(0.0180848 1.21286 6.93912e-20)
(1.04082 0.0121323 0)
(1.04704 0.00836048 -6.7788e-20)
(1.03872 0.0222997 -4.89342e-19)
(1.04857 0.0211218 0)
(1.0525 0.0209807 0)
(1.03636 0.0123254 -6.85637e-21)
(1.03099 0.0121475 7.86499e-19)
(1.03164 0.0171594 9.53511e-19)
(1.02544 0.0210551 0)
(1.02213 0.0214343 0)
(1.03523 0.0260374 4.87917e-19)
(1.02546 0.0278829 0)
(1.02353 0.0279297 0)
(-0.0181933 2.02273 0)
(0.000924577 1.65233 -4.34024e-21)
(-0.00462225 1.75989 -3.01682e-20)
(-0.000871459 1.38584 0)
(-0.00663505 1.55314 -1.80766e-20)
(-0.00874745 1.46282 1.1385e-20)
(-0.00537357 1.39917 0)
(0.388656 1.64419 0)
(0.374052 1.30721 -7.27565e-20)
(0.300997 1.34075 0)
(0.425928 1.30577 8.05108e-21)
(0.476405 1.47001 0)
(0.456758 1.41438 2.45081e-20)
(1.03643 2.67554 -1.53751e-20)
(0.968439 2.40345 -9.14012e-19)
(0.921526 2.19167 1.02544e-18)
(0.852212 2.37168 2.4218e-19)
(0.847806 2.48507 0)
(0.917544 2.48129 0)
(0.931362 2.3682 0)
(0.910316 2.35733 -9.44896e-19)
(0.686882 2.449 -3.94899e-19)
(0.799996 2.43851 -9.78065e-20)
(0.810312 2.41268 7.43142e-20)
(0.695595 2.38992 0)
(0.800814 2.38521 0)
(0.758996 2.39862 -3.68874e-19)
(0.767607 2.47479 0)
(0.630019 1.0936 0)
(0.48057 0.90142 -5.12045e-19)
(0.566623 0.945052 -3.24091e-20)
(0.519157 1.03485 0)
(0.519605 0.978327 7.66924e-19)
(0.798473 0.884139 -1.30203e-19)
(0.807721 1.02053 0)
(0.782816 0.986918 1.86082e-19)
(0.666806 1.03395 0)
(0.668114 0.935737 0)
(1.16352 2.75226 -2.30122e-19)
(1.14097 2.81559 -9.73148e-20)
(0.929062 2.33001 1.0073e-19)
(0.89687 2.30936 -8.34043e-20)
(1.12907 2.72524 0)
(1.08289 2.69471 1.00345e-19)
(1.08901 2.47863 -3.14026e-19)
(0.983509 2.23151 -3.03816e-20)
(0.492264 1.33113 0)
(0.507941 1.06103 -1.23316e-19)
(0.575797 1.16717 0)
(0.853817 0.248654 0)
(0.761212 0.198352 0)
(0.673751 0.15565 0)
(0.844967 0.2508 -6.40274e-19)
(0.734159 0.241636 3.73676e-19)
(0.922291 0.0895632 -4.11286e-19)
(0.927448 0.131918 0)
(0.913987 0.140712 1.7769e-19)
(0.851019 0.117945 7.10706e-19)
(0.81577 0.0793905 -4.45355e-19)
(1.15575 3.34945 -7.17923e-19)
(1.20467 3.26893 0)
(1.15351 3.37836 -1.4876e-18)
(0.641882 3.53983 1.26218e-18)
(0.863542 3.10842 7.16283e-20)
(0.521806 0.802526 6.05401e-19)
(0.42437 0.799777 0)
(0.309248 0.391031 -1.49097e-19)
(0.471302 0.651575 8.57699e-19)
(0.559851 0.364899 -1.965e-19)
(0.515104 0.467213 2.31456e-19)
(0.674192 0.511888 4.93586e-19)
(0.712568 0.549923 0)
(0.662769 0.576493 0)
(0.627261 0.526972 0)
(1.00748 0.614358 8.89637e-20)
(0.92238 0.553743 -5.14777e-19)
(0.947714 0.585485 3.88066e-19)
(0.978482 0.525424 -3.98399e-19)
(1.08596 0.494433 0)
(1.09438 0.585189 -9.71559e-20)
(0.85896 0.410524 -8.30728e-19)
(0.858216 0.39959 -1.03046e-18)
(0.793853 0.393547 6.44187e-19)
(0.80479 0.37387 -6.54159e-19)
(0.846118 0.334953 -5.19678e-19)
(0.793735 0.336966 6.35896e-19)
(1.02667 0.00610001 -4.93724e-19)
(1.02637 0.00632041 1.0036e-18)
(1.02945 0.000250022 6.28036e-19)
(1.03369 0.00116483 -7.56343e-19)
(1.03381 0.00932742 0)
(1.03005 0.0100275 -1.2316e-18)
(0.0639741 1.64271 1.94377e-20)
(0.0508329 1.59078 0)
(0.0900826 1.69216 1.20222e-19)
(0.0986964 1.67356 -1.05796e-19)
(0.0931611 1.54982 2.51241e-20)
(0.0931593 1.54895 0)
(0.0114722 1.68575 0)
(-0.00403734 1.49333 7.08709e-21)
(-0.00193979 1.43924 -6.37586e-21)
(-0.00737016 1.54993 5.37775e-21)
(0.00186391 1.88413 1.05945e-20)
(-0.00996443 1.9372 -1.55054e-21)
(0.496606 1.35788 -2.76131e-19)
(0.49013 1.35825 3.03354e-19)
(0.453059 1.30139 -3.17299e-20)
(0.436333 1.28442 7.78385e-21)
(0.639483 1.308 0)
(0.555294 1.39835 1.04651e-19)
(0.570446 1.40586 -1.01874e-19)
(0.466714 1.29066 3.09299e-20)
(0.521037 1.24074 0)
(0.572663 1.20349 0)
(0.653791 2.40855 5.80103e-19)
(0.669465 2.44998 1.26101e-18)
(0.713909 2.46065 -8.68904e-19)
(0.610168 2.43453 -2.01993e-19)
(0.559976 2.52494 2.83941e-19)
(0.509261 2.4997 -7.57691e-19)
(0.978182 2.37495 -5.73874e-19)
(1.01239 2.38715 0)
(0.925726 2.16973 -6.59696e-19)
(1.05386 2.67372 0)
(1.05614 2.66032 0)
(0.599319 2.25783 -1.2645e-19)
(1.03676 3.15423 1.28815e-19)
(0.907921 3.0246 -3.22385e-20)
(0.264828 0.851274 0)
(0.291907 0.695344 -3.17428e-19)
(0.461528 0.65497 -3.19208e-19)
(0.379163 2.00226 0)
(0.46237 2.77899 -4.98624e-20)
(0.416095 2.54165 0)
(0.714897 0.668093 -8.39141e-19)
(0.799449 0.684938 1.12518e-18)
(0.819536 0.626212 -1.11175e-18)
(0.692207 0.631184 -1.07633e-19)
(0.747291 0.588888 -4.41459e-19)
(1.00057 2.75338 -9.79668e-20)
(1.04138 2.81438 -1.65251e-19)
(0.632025 2.12226 6.96029e-19)
(0.584741 1.69062 -4.95912e-19)
(0.693921 1.88967 -4.07018e-19)
(0.986845 2.43722 -1.12915e-19)
(0.993721 2.43022 2.96431e-19)
(0.64993 1.82343 2.8277e-20)
(0.441404 1.3112 1.44424e-19)
)
;

boundaryField
{
    wall-4
    {
        type            noSlip;
    }
    velocity-inlet-5
    {
        type            fixedValue;
        value           uniform (1 0 0);
    }
    velocity-inlet-6
    {
        type            fixedValue;
        value           uniform (0 3 0);
    }
    pressure-outlet-7
    {
        type            zeroGradient;
    }
    wall-8
    {
        type            noSlip;
    }
    frontAndBackPlanes
    {
        type            empty;
    }
}


// ************************************************************************* //
