/*--------------------------------*- C++ -*----------------------------------*\
| =========                 |                                                 |
| \\      /  F ield         | OpenFOAM: The Open Source CFD Toolbox           |
|  \\    /   O peration     | Version:  4.0                                   |
|   \\  /    A nd           | Web:      www.OpenFOAM.org                      |
|    \\/     M anipulation  |                                                 |
\*---------------------------------------------------------------------------*/
FoamFile
{
    version     2.0;
    format      ascii;
    class       volScalarField;
    location    "58";
    object      p;
}
// * * * * * * * * * * * * * * * * * * * * * * * * * * * * * * * * * * * * * //

dimensions      [0 2 -2 0 0 0 0];

internalField   nonuniform List<scalar> 
918
(
0.556536
1.18665
0.00113318
0.555963
-0.0126259
1.15363
-0.508415
0.677956
0.536726
-0.109894
-0.0440598
0.536315
1.01446
0.780398
-1.12506
-0.00980663
0.651704
-0.383741
0.53582
-0.0545353
0.703345
0.543274
0.5463
0.53688
0.600663
0.754747
0.895729
0.0215645
0.00915787
0.00479253
-0.0123245
-0.0397945
-0.0334629
1.03727
1.08837
1.11107
0.504571
0.331751
-0.373834
-0.44522
-0.435607
-0.54701
0.673363
0.671387
-0.205206
0.681145
0.684452
0.523779
0.536094
0.537002
0.538035
0.537013
0.538396
0.404125
-0.112502
-0.144504
-0.0902936
-0.0814989
0.0555117
-0.0444277
-0.0471392
-0.0427579
-0.0422416
0.453892
0.530614
0.527547
0.541572
0.552274
1.1262
1.09811
1.12425
1.03798
1.05443
0.992437
0.965062
0.800908
0.823031
0.766103
0.75182
-1.55802
-2.51119
-0.534228
-0.283141
-0.0104749
-0.00689023
-0.000759319
0.648188
0.64891
0.651361
0.654927
1.07997
-0.380682
-0.481209
0.535959
0.534765
0.5431
0.5438
0.539818
0.538909
-0.0446489
-0.0405454
-0.0469637
-0.0503212
-0.0498382
0.692299
0.692521
0.53741
0.534416
0.559372
0.580012
0.571321
0.278611
0.60886
0.623687
0.586459
0.746581
0.741172
0.749748
0.869377
0.833474
0.93257
0.955751
0.0167301
0.000160749
-0.0145529
-0.0193067
-0.0177569
0.500416
0.492979
0.520223
0.507995
0.510494
0.248195
0.114422
0.416933
0.442009
-0.291648
-0.356154
-0.431054
-0.460093
-0.567691
0.610909
0.666832
0.663904
-0.217517
-0.145055
-0.277137
-0.0714371
-0.133853
0.514062
0.521062
0.516068
0.531601
0.526072
0.528034
0.540358
0.537431
0.53899
0.466515
0.590285
0.330272
0.295111
-0.246752
-0.16127
-0.247497
-0.0690887
-0.064164
0.0692527
0.0945985
0.0425781
0.0309834
-0.0580967
-0.0498558
-0.0537127
-0.0412984
-0.0405246
0.446675
0.435521
0.466563
0.474097
0.518746
0.520131
0.524345
0.522423
0.915817
0.938261
0.945782
0.919451
-3.50288
-6.28828
0.0421184
0.178828
-0.00664722
-0.00890621
0.00227952
-0.00579296
0.000739215
-0.00187149
-0.00485849
-0.0063063
-0.00141046
0.000211245
0.641756
0.642623
1.00145
1.00739
0.978062
0.930519
0.524147
0.526227
0.531738
0.527614
-0.0402985
-0.0406816
-0.040571
0.686978
0.691075
0.689625
0.240418
0.15125
0.329341
0.358257
0.635243
0.62341
0.633573
0.647704
0.684326
0.963198
0.981407
0.979605
0.987899
1.03186
1.04821
1.01367
0.479908
0.489866
0.48483
0.523335
0.521104
0.522009
0.517805
0.519138
0.517079
-0.036344
-0.417093
0.490074
0.507478
0.491655
0.49491
0.69096
0.769352
0.655203
0.659957
0.658635
-0.00292986
-0.0612761
0.250767
0.217107
0.386453
0.422742
0.40177
0.887188
0.847241
0.897448
0.870708
0.83188
0.85813
-0.368766
-1.87065
-0.988492
0.529283
0.343315
0.430946
0.0128449
-0.00417268
0.000421764
1.00048
1.07365
0.646132
0.820415
0.823598
0.718566
0.747253
0.807772
0.733994
0.768527
0.801805
0.779351
0.567221
0.503338
0.51916
0.838527
0.894232
0.121817
0.061363
0.0173674
0.113164
0.170106
0.144385
1.03425
0.948255
1.01864
0.534176
0.534893
-0.00399466
-0.0180197
0.53912
0.539173
-0.011784
-0.000739846
0.413366
-0.833521
0.103377
0.527682
0.517642
0.534742
-0.0926368
0.355713
-0.0450559
0.0501076
-0.00561376
0.531765
0.464967
0.424232
0.0026858
-0.0179969
-0.0448775
-0.216205
0.531846
0.530151
0.534209
0.535156
0.535834
-0.0167556
-0.0124445
-0.00931915
-0.0429674
-0.0382735
-0.04794
0.498742
0.517624
-0.170424
0.534354
0.536485
0.536305
0.52955
0.535188
0.533434
-0.00849321
-0.0142571
-0.0167904
0.221696
0.351695
0.653109
0.74098
0.624733
0.400513
0.164987
0.556427
0.619479
0.525356
0.678795
0.662891
0.678078
0.168871
0.0186042
0.177213
0.118484
0.52554
0.524244
0.515896
0.51287
0.529605
0.527715
0.532278
0.529289
0.532241
0.533627
-0.0501741
-0.0754602
-0.0872467
-0.156533
0.310355
0.572133
0.253361
0.283802
0.143035
-0.0395944
-0.0405835
-0.0441943
-0.0498991
0.00336841
-0.0204739
0.0451025
0.0457802
0.0179489
-0.00833474
-0.00435091
-0.015262
-0.0115195
0.52495
0.523863
0.529205
0.538078
0.474583
0.47836
0.443314
0.464003
0.449298
0.388208
0.423396
0.398618
-0.00365278
0.00567939
-0.000830726
-0.0153032
-0.0121133
-0.0305175
-0.0272326
-0.0234639
-0.019086
-0.0257882
-0.0401873
-0.0418456
-0.173552
-0.288299
0.988245
0.910579
0.134674
0.521001
0.527451
0.524216
0.529118
0.532246
0.533054
0.530771
0.527323
0.517973
0.519515
0.516322
0.517194
-0.102419
-0.242787
-0.0709028
-0.143735
0.143111
0.626964
0.36362
0.300036
0.295016
0.522674
0.918092
0.703113
0.678031
0.688438
-0.343384
0.0471001
-0.279005
0.33681
0.163553
0.654112
0.701799
0.721639
0.671016
0.624625
-0.104549
0.554456
-0.0695405
-0.0185061
0.182066
0.0608012
0.673667
0.648473
0.652435
0.669095
0.685162
0.654645
0.639977
0.635032
0.664741
0.66685
0.488323
0.25253
0.203997
0.165455
0.641884
0.523592
0.576798
0.493685
0.520724
0.523337
0.521969
0.503561
0.511131
0.506665
0.513179
0.516658
0.525318
0.52577
0.521067
0.5232
-0.0551826
-0.0591145
-0.030532
-0.139039
-0.132401
-0.195161
-0.0643892
0.0740132
0.0345228
0.235684
0.340658
0.0515465
-0.0595021
-0.0322891
0.00950364
0.178972
0.205863
0.0747722
0.16306
0.152642
0.135293
0.237166
0.241272
-0.0243843
-0.0282347
-0.0313664
-0.0336643
0.021126
0.0913438
0.101162
-0.00197666
-0.00795052
-0.0375336
-0.0370453
-0.0209664
-0.025669
-0.0218429
0.010836
-0.0504096
-0.0175875
-0.00334442
0.00104464
-0.00134274
-0.00695684
0.517389
0.519887
0.519434
0.525221
0.542103
0.556825
0.517843
0.496746
0.487553
0.490564
0.463473
0.473803
0.469459
0.483203
0.50437
0.514049
0.511314
0.514132
0.496496
0.498208
0.484701
0.488419
0.463152
0.444097
0.432241
-0.0397022
-0.000758149
-0.00898235
-0.0350223
-0.00513124
-0.0173219
-0.0077456
0.0113609
-0.00468864
-0.00683529
-0.0175167
-0.0229762
-0.0223825
-0.0751988
0.0110312
-0.184281
-0.220348
-0.292551
0.890044
1.01408
0.81008
0.583187
0.602594
0.845832
0.930584
0.543408
0.73525
0.758668
0.585911
0.85299
0.525835
0.525438
0.523037
0.522516
0.523733
-0.00770778
0.0979194
0.0977794
0.159726
0.274996
0.386996
0.317212
0.192728
0.32312
0.32566
0.619304
0.631445
0.586931
0.611097
0.610555
0.425589
0.501353
0.553505
0.511947
0.564329
0.585468
0.540319
0.572857
0.523062
0.477926
0.473793
0.424475
0.444127
0.420234
0.403221
0.515209
0.492746
0.503239
0.493569
0.512546
0.53993
0.535297
0.561577
0.575401
0.497306
0.45266
0.462031
0.492363
0.453286
0.468431
0.484944
0.230161
0.131733
0.214579
-0.0721916
0.000748176
-0.0125371
-0.0607297
-0.0106701
0.273988
-0.418545
-0.394785
-1.02302
0.500563
0.95351
0.614855
0.58773
0.682709
0.664967
0.669793
0.686193
0.689557
0.630444
0.642633
0.646272
0.608338
0.630319
0.649317
0.646368
0.524345
0.386001
0.383621
0.333571
0.203708
0.24264
0.441203
0.364348
0.289056
0.289724
0.458219
0.345041
0.414413
0.449243
0.380719
0.335063
0.538071
0.602971
0.595727
0.570119
0.484042
0.497425
0.52129
0.555525
0.581017
0.611625
0.512625
0.518537
0.519773
0.517255
0.514521
0.51757
0.517804
0.520349
0.521012
0.523997
0.52304
-0.0445323
-0.0325984
-0.0460059
-0.0540995
-0.0203592
-0.0232823
0.0197671
0.0052842
-0.0118124
-0.00610411
-0.0310086
-0.0353174
-0.0307611
-0.0220089
0.0989449
0.111531
0.0947543
0.0551226
0.249104
0.378905
0.453364
0.328524
0.221255
0.244356
0.264572
-0.0117213
0.0150995
0.00200911
0.0412791
0.0329389
-0.031874
-0.0361034
-0.0333441
-0.0263452
-0.0168756
-0.0332649
-0.0365326
-0.0277199
-0.032382
-0.034392
-0.0383775
0.499006
0.492479
0.4942
0.488009
0.486718
0.501125
0.505371
0.507359
0.512873
0.515258
0.505195
0.511047
0.514941
-0.00812498
-0.0309363
-0.0349894
-0.0237201
-0.0265018
-0.0245514
-0.0261368
0.122378
0.0518461
0.0566104
0.00858029
-0.122602
-0.0649704
0.490073
0.489182
0.479046
0.719811
0.569126
0.489645
0.586772
0.692414
0.274756
0.471819
0.306571
0.887509
0.783589
0.930024
0.541302
0.243221
0.404911
0.449682
0.261569
0.336457
0.325682
0.214345
0.24541
0.282192
0.381461
0.263614
0.239994
-0.00277999
0.187449
0.299921
0.28176
0.406789
0.46789
0.264311
0.184043
0.13909
0.604621
0.623887
0.638142
0.610373
0.631418
0.577848
0.568697
0.585233
0.593908
0.589296
-0.750926
-0.457464
-1.40369
-0.7245
-0.270593
0.530819
0.500569
0.76713
0.646893
0.68926
0.674708
0.633965
0.602785
0.624025
0.64891
0.345596
0.456791
0.431967
0.437093
0.338927
0.269922
0.568034
0.564013
0.597051
0.620339
0.591966
0.621568
0.510446
0.510161
0.509632
0.505888
0.504161
0.506517
0.0578144
0.0262442
0.0630448
0.043585
0.0203603
0.0084298
-0.00443088
-0.014217
-0.0214546
-0.0214928
-0.00805603
-0.00393891
0.169735
0.108097
0.0278745
0.0578384
-0.00316374
-0.0721076
-0.0905187
0.0135041
0.10985
0.100116
0.404209
0.654125
0.474096
0.641564
0.483736
0.53949
0.467687
0.459183
0.48462
0.378205
0.458657
0.242161
-0.264826
-0.173893
0.789958
0.802515
0.579761
0.402238
0.171045
0.352054
0.543645
0.475274
0.511502
0.580497
0.568752
0.0230107
0.0829318
0.363174
0.59023
0.237456
0.228564
0.222357
0.404197
0.32394
)
;

boundaryField
{
    wall-4
    {
        type            zeroGradient;
    }
    velocity-inlet-5
    {
        type            zeroGradient;
    }
    velocity-inlet-6
    {
        type            zeroGradient;
    }
    pressure-outlet-7
    {
        type            fixedValue;
        value           uniform 0;
    }
    wall-8
    {
        type            zeroGradient;
    }
    frontAndBackPlanes
    {
        type            empty;
    }
}


// ************************************************************************* //
