/*--------------------------------*- C++ -*----------------------------------*\
| =========                 |                                                 |
| \\      /  F ield         | OpenFOAM: The Open Source CFD Toolbox           |
|  \\    /   O peration     | Version:  4.0                                   |
|   \\  /    A nd           | Web:      www.OpenFOAM.org                      |
|    \\/     M anipulation  |                                                 |
\*---------------------------------------------------------------------------*/
FoamFile
{
    version     2.0;
    format      ascii;
    class       volScalarField;
    location    "36";
    object      p;
}
// * * * * * * * * * * * * * * * * * * * * * * * * * * * * * * * * * * * * * //

dimensions      [0 2 -2 0 0 0 0];

internalField   nonuniform List<scalar> 
918
(
0.635732
1.28856
0.0054096
0.635062
0.0131478
1.25559
-0.421856
0.801257
0.615874
-0.0127156
0.0470009
0.610942
1.11618
0.881803
-1.04843
0.0864999
0.752017
-0.301354
0.614887
0.0472473
0.836871
0.622462
0.625495
0.616082
0.678423
0.862829
0.996873
0.0187402
-0.007753
-0.00330368
0.0558542
0.0437156
0.0484942
1.13925
1.19032
1.213
0.584214
0.409636
-0.282114
-0.351916
-0.344343
-0.468605
0.793145
0.795228
-0.0920745
0.802665
0.81224
0.603079
0.615236
0.616123
0.61722
0.616168
0.617563
0.491717
-0.0178171
-0.0505259
0.00733179
0.0188617
0.145585
0.0503691
0.0489054
0.0494969
0.0547778
0.535198
0.606803
0.603996
0.61602
0.624294
1.22811
1.20004
1.22617
1.1398
1.15632
1.09418
1.06673
0.902928
0.924405
0.866228
0.854711
-1.48654
-2.44964
-0.452153
-0.197769
-0.0059701
0.0827344
0.0965124
0.743047
0.74169
0.753438
0.765637
1.16204
-0.296542
-0.41868
0.61501
0.613807
0.622203
0.622899
0.618912
0.618007
0.0532806
0.0581931
0.0289534
0.0439609
0.0431919
0.826183
0.824516
0.616625
0.613645
0.631596
0.652345
0.644225
0.367473
0.682413
0.694727
0.684304
0.851853
0.846659
0.855297
0.97045
0.933176
1.03416
1.05749
-0.00402853
-0.00390024
0.0660146
0.0611683
0.075011
0.580161
0.572921
0.599048
0.58757
0.589988
0.325327
0.190351
0.495218
0.520419
-0.193216
-0.254973
-0.355515
-0.375022
-0.489915
0.684878
0.783708
0.783312
-0.112452
-0.03439
-0.168327
0.0385613
-0.0212901
0.593495
0.600401
0.595459
0.610838
0.605343
0.60729
0.619465
0.616539
0.6181
0.555167
0.679359
0.417951
0.383501
-0.161819
-0.0700617
-0.16403
0.0308331
0.0357382
0.158423
0.186184
0.136008
0.123329
0.0421642
0.0491894
0.0463398
0.0614378
0.0603486
0.52839
0.517869
0.54746
0.554758
0.597145
0.598248
0.601451
0.600011
1.0176
1.03997
1.04742
1.02122
-3.45151
-6.25576
0.131813
0.271076
-0.012627
0.00336228
-0.0103943
0.0472362
0.0117682
0.00905599
0.097754
0.0966223
0.0944157
0.0971239
0.727764
0.726996
1.07984
1.07879
1.06261
1.01155
0.603078
0.605203
0.610779
0.606616
0.0597108
0.0597898
0.0633318
0.812655
0.820157
0.819118
0.33077
0.244584
0.416252
0.443776
0.714148
0.698923
0.711714
0.745921
0.78156
1.06491
1.08309
1.08142
1.08975
1.13382
1.15026
1.11551
0.560318
0.569895
0.56506
0.602239
0.59994
0.600881
0.596399
0.597858
0.595645
0.0382359
-0.345458
0.573397
0.59062
0.569207
0.576374
0.763772
0.838855
0.765653
0.775177
0.773918
0.104069
0.0474853
0.342003
0.307753
0.470658
0.505509
0.485429
0.988693
0.949218
0.999183
0.972725
0.934059
0.960083
-0.297089
-1.81136
-0.92203
0.626341
0.437553
0.526072
0.110293
0.0997723
0.105768
1.07337
1.15229
0.735893
0.902556
0.911889
0.820387
0.851734
0.90608
0.8303
0.865911
0.90212
0.884352
0.641085
0.586496
0.596453
0.907787
0.963159
0.218566
0.164016
0.119666
0.205524
0.259557
0.233764
1.11678
1.01935
1.09081
0.613394
0.614089
0.00876503
0.0397557
0.618227
0.618276
0.0481998
0.0781773
0.508662
-0.758387
0.207657
0.606711
0.596951
0.613885
0.00590775
0.449087
0.0465655
0.146485
0.100184
0.608576
0.545519
0.506473
0.0629017
0.0685387
0.0527049
-0.123975
0.611066
0.609376
0.613345
0.614329
0.614988
0.0538258
0.0317164
0.0215477
0.0509653
0.0475614
0.0456703
0.578598
0.595847
-0.0779322
0.613468
0.615595
0.615408
0.608572
0.61427
0.612471
0.0745663
0.0798562
0.0673644
0.31521
0.436644
0.755762
0.850653
0.721802
0.494719
0.255654
0.655349
0.721124
0.623359
0.781845
0.776631
0.795571
0.27105
0.123819
0.279302
0.221006
0.604578
0.603223
0.595192
0.592296
0.608731
0.606839
0.611394
0.608352
0.611338
0.612744
0.0433224
0.0214149
0.00810199
-0.0547424
0.405328
0.666435
0.343419
0.374794
0.234809
0.0549633
0.0544586
0.0468808
0.0446008
0.0954578
0.0846853
0.140731
0.144961
0.12087
0.100304
0.0888088
0.0836808
0.0783863
0.602203
0.600656
0.606931
0.615621
0.554843
0.558624
0.524916
0.544615
0.530782
0.471475
0.505919
0.481552
0.0579368
0.0695865
0.042276
0.0742443
0.0836309
0.0697679
0.066401
0.0577323
0.0590946
0.0583041
0.0634477
0.063722
-0.0823916
-0.195067
1.06714
1.00357
0.209743
0.600256
0.60668
0.603464
0.608269
0.611384
0.612224
0.609983
0.606565
0.5964
0.598174
0.594611
0.595304
-0.016103
-0.15311
0.0208912
-0.0473236
0.219456
0.707259
0.44926
0.389188
0.383638
0.60575
1.00741
0.80241
0.796243
0.818439
-0.262602
0.134272
-0.195548
0.423704
0.245342
0.754075
0.804507
0.826976
0.773916
0.725384
-0.0319767
0.628751
0.0316786
0.0774436
0.271173
0.161771
0.797219
0.759946
0.76573
0.783606
0.803002
0.765507
0.746063
0.741615
0.779226
0.782767
0.581836
0.348174
0.303205
0.263992
0.743112
0.622411
0.679677
0.591776
0.599512
0.602298
0.600876
0.583274
0.590611
0.586322
0.592127
0.595382
0.604481
0.604833
0.600231
0.602423
0.0420948
0.0410716
0.0587241
-0.0484684
-0.0374533
-0.0973401
0.0202121
0.159679
0.122543
0.317988
0.424062
0.137084
0.0209598
0.0501132
0.0837694
0.262908
0.287451
0.163937
0.254542
0.238983
0.225386
0.328911
0.33614
0.071941
0.063335
0.0638388
0.0625855
0.116809
0.184733
0.197055
0.0961683
0.0878158
0.0569851
0.0603723
0.0690513
0.0668858
0.0682204
0.105524
0.0283315
0.073526
0.0951191
0.100166
0.0941406
0.0886421
0.595264
0.597228
0.597009
0.604833
0.621485
0.636915
0.596094
0.576598
0.567533
0.570515
0.54412
0.554042
0.550011
0.563112
0.583396
0.592252
0.590342
0.592899
0.576212
0.577604
0.564723
0.568592
0.544617
0.526362
0.514775
0.0598544
0.0621419
0.0782408
0.0446603
0.0742079
0.0817546
0.100034
0.111641
0.0954832
0.0912367
0.0907637
0.0755806
0.0798404
0.0103726
0.0890987
-0.0983845
-0.130483
-0.199585
0.971186
1.09147
0.895401
0.671425
0.68488
0.923736
1.00957
0.633503
0.818151
0.841441
0.657498
0.923639
0.605085
0.604678
0.602274
0.601763
0.603001
0.0730607
0.174162
0.182794
0.237165
0.351462
0.464577
0.390134
0.267104
0.400146
0.404424
0.702594
0.717995
0.666773
0.689998
0.687702
0.515308
0.593779
0.64853
0.60104
0.647674
0.670261
0.630805
0.661428
0.606987
0.563038
0.561125
0.508885
0.529967
0.508056
0.48986
0.594721
0.572516
0.582781
0.57387
0.593219
0.61839
0.614249
0.643441
0.654448
0.577783
0.536938
0.546733
0.575511
0.536166
0.549798
0.565501
0.302477
0.201697
0.286183
-0.00556236
0.0753441
0.0601855
0.0131097
0.0585994
0.344514
-0.353703
-0.326474
-0.959216
0.568056
1.03805
0.75052
0.723107
0.798784
0.777581
0.780518
0.803503
0.810284
0.732662
0.751086
0.754356
0.711907
0.735159
0.758438
0.755871
0.602474
0.47619
0.46801
0.426966
0.301008
0.335134
0.537523
0.460117
0.386131
0.389104
0.551816
0.440149
0.506494
0.545162
0.476796
0.431896
0.636026
0.702236
0.692278
0.667193
0.583746
0.597374
0.622418
0.658396
0.685494
0.717683
0.591926
0.597727
0.599003
0.596463
0.5937
0.596614
0.596716
0.599231
0.600074
0.602987
0.601975
0.051233
0.0629107
0.0515812
0.0433676
0.067925
0.0632123
0.108949
0.096077
0.0825671
0.0891217
0.0620128
0.0587833
0.064296
0.0732232
0.182421
0.197113
0.183666
0.14357
0.330215
0.462497
0.532346
0.409175
0.302868
0.327913
0.350757
0.0775947
0.106907
0.0923203
0.132291
0.122953
0.0679809
0.0616902
0.0644758
0.0694225
0.0820286
0.064012
0.0721142
0.0808892
0.0698082
0.0623498
0.060123
0.578701
0.572259
0.573403
0.567647
0.566661
0.580106
0.584473
0.586231
0.591564
0.593529
0.584134
0.589529
0.593074
0.0967358
0.0779115
0.0733447
0.0821382
0.0824901
0.0837621
0.0813182
0.201973
0.128975
0.13468
0.0895539
-0.0365245
0.020234
0.564892
0.56226
0.559452
0.793933
0.644983
0.563872
0.659776
0.766174
0.351392
0.549628
0.383124
0.963208
0.85635
1.00209
0.619445
0.31614
0.470533
0.520967
0.330057
0.402393
0.407758
0.296871
0.328503
0.360303
0.460953
0.338925
0.313309
0.071756
0.260105
0.376139
0.357272
0.484705
0.54708
0.336701
0.256154
0.211591
0.694617
0.713812
0.733598
0.70376
0.728259
0.653979
0.644087
0.662055
0.669931
0.665533
-0.687671
-0.395856
-1.33956
-0.654832
-0.205539
0.597386
0.560987
0.840134
0.727555
0.791807
0.777022
0.736534
0.702877
0.714738
0.747142
0.445028
0.556069
0.530152
0.53629
0.437685
0.370847
0.670986
0.665097
0.701067
0.725159
0.692709
0.7258
0.589673
0.589291
0.588981
0.58541
0.583765
0.585914
0.145847
0.116274
0.149426
0.13195
0.109354
0.0976562
0.0924685
0.0859191
0.0807466
0.0799123
0.0898779
0.0892269
0.242991
0.184958
0.107811
0.138783
0.0771791
0.0109677
-0.00754915
0.0930841
0.185804
0.175872
0.482036
0.732891
0.554264
0.722491
0.562369
0.617837
0.549627
0.541052
0.568835
0.454706
0.534788
0.29676
-0.205823
-0.114713
0.854834
0.873388
0.654694
0.468652
0.240011
0.429066
0.628638
0.564532
0.602968
0.671942
0.664121
0.0835148
0.150895
0.409404
0.637292
0.306757
0.298552
0.293455
0.467301
0.392279
)
;

boundaryField
{
    wall-4
    {
        type            zeroGradient;
    }
    velocity-inlet-5
    {
        type            zeroGradient;
    }
    velocity-inlet-6
    {
        type            zeroGradient;
    }
    pressure-outlet-7
    {
        type            fixedValue;
        value           uniform 0;
    }
    wall-8
    {
        type            zeroGradient;
    }
    frontAndBackPlanes
    {
        type            empty;
    }
}


// ************************************************************************* //
