/*--------------------------------*- C++ -*----------------------------------*\
| =========                 |                                                 |
| \\      /  F ield         | OpenFOAM: The Open Source CFD Toolbox           |
|  \\    /   O peration     | Version:  4.0                                   |
|   \\  /    A nd           | Web:      www.OpenFOAM.org                      |
|    \\/     M anipulation  |                                                 |
\*---------------------------------------------------------------------------*/
FoamFile
{
    version     2.0;
    format      ascii;
    class       volScalarField;
    location    "7";
    object      p;
}
// * * * * * * * * * * * * * * * * * * * * * * * * * * * * * * * * * * * * * //

dimensions      [0 2 -2 0 0 0 0];

internalField   nonuniform List<scalar> 
918
(
0.243223
0.990545
0.00525972
0.241555
0.00133831
0.958675
-0.693825
0.447378
0.222828
-0.114259
0.0278527
0.211503
0.817969
0.581226
-1.33335
0.0221864
0.379152
-0.672494
0.213858
0.0127637
0.540263
0.231651
0.232905
0.22249
0.277334
0.556642
0.698112
-0.000369662
-0.00124481
-0.00132794
0.00280206
0.000876648
0.00765083
0.842491
0.892689
0.915047
0.196847
-0.168237
-0.489436
-0.638391
-0.56077
-0.765488
0.429264
0.431348
-0.464286
0.448281
0.47065
0.213613
0.221445
0.222864
0.226866
0.2233
0.225202
0.291973
-0.125347
-0.170465
-0.0560253
-0.0366414
0.0890271
0.0283334
0.0302156
0.0262975
0.0311543
0.154624
0.208422
0.207175
0.21504
0.221123
0.929107
0.900494
0.925718
0.842213
0.857618
0.796147
0.768012
0.603362
0.624386
0.566802
0.554334
-1.77787
-2.78447
-0.731868
-0.484474
0.00335699
0.0286647
0.0303107
0.361389
0.373291
0.375489
0.395469
0.720196
-0.616402
-0.837487
0.218815
0.215661
0.229573
0.228112
0.225717
0.222501
0.0190431
0.0229644
0.00057353
0.00922112
0.00726764
0.535936
0.532655
0.222854
0.219787
0.231725
0.247659
0.239841
0.00168131
0.286505
0.316349
0.390345
0.551177
0.54381
0.553243
0.672326
0.63594
0.735997
0.760045
0.00595447
0.000521089
0.0189128
0.00908493
0.0157348
0.191554
0.18677
0.205268
0.199983
0.200051
-0.145908
-0.194724
-0.223436
-0.287654
-0.463741
-0.583066
-0.63372
-0.613182
-0.822213
0.627742
0.406941
0.418397
-0.429649
-0.377322
-0.525116
-0.31438
-0.40148
0.203558
0.209482
0.206161
0.220778
0.214085
0.219861
0.227106
0.223544
0.224932
0.315794
0.362384
0.255664
0.230117
-0.392994
-0.200077
-0.407794
-0.0188511
-0.00823649
0.102101
0.117687
0.0825974
0.0780569
0.00293222
0.0278016
0.0126299
0.031281
0.0303813
0.145756
0.137811
0.164166
0.171521
0.201092
0.203053
0.203371
0.2032
0.717227
0.739416
0.748358
0.721104
-3.85525
-7.02476
-0.155427
-0.0201873
0.00511242
0.00339479
0.002896
0.00421047
0.005305
0.00272626
0.0499433
0.047478
0.0356991
0.0448964
0.345599
0.357206
0.684505
0.753231
0.627764
0.620587
0.206619
0.208945
0.215258
0.210425
0.0300998
0.0255097
0.0270741
0.474421
0.505884
0.49785
-0.0358296
-0.128123
0.0483925
0.0729734
0.336106
0.321728
0.337379
0.4492
0.4832
0.765269
0.781892
0.785386
0.793513
0.838882
0.851827
0.815267
0.175402
0.18307
0.179652
0.207225
0.204666
0.206441
0.200382
0.201881
0.201956
-0.314498
-0.63824
0.0765592
-0.0889643
-0.331018
-0.182291
0.643032
0.712855
0.385335
0.397874
0.404574
-0.241045
-0.33106
0.20145
0.182643
0.0967232
0.126408
0.109075
0.687065
0.648978
0.698887
0.672192
0.631901
0.658118
-0.657529
-1.96325
-1.17255
0.333393
0.144984
0.232568
0.0681388
0.0543762
0.0584096
0.740872
0.803388
0.403398
0.527848
0.519237
0.523759
0.554238
0.61029
0.534476
0.568996
0.603174
0.58533
0.444825
0.192443
0.410113
0.730362
0.80924
-0.141414
-0.180599
-0.26356
0.129587
0.156815
0.138473
0.781676
0.78299
0.81946
0.21968
0.221782
0.0104271
0.013424
0.227102
0.227117
0.00837903
0.00814551
0.221659
-1.01754
-0.165806
0.21187
0.207762
0.219108
-0.0748573
0.275894
0.0300328
0.0935839
0.0660975
0.210138
0.162704
0.132641
0.00232573
0.0256725
0.0189664
-0.302062
0.217996
0.214479
0.219201
0.220231
0.22141
0.00790323
0.0095354
0.00852088
0.0181892
0.0130501
0.0125928
0.191306
0.202091
-0.30928
0.21967
0.222894
0.222889
0.212256
0.220097
0.215304
0.0199976
0.0140179
0.0180297
-0.0390939
0.06944
0.456781
0.549701
0.431892
0.204264
-0.0391705
0.362655
0.425061
0.3355
0.48455
0.385794
0.429974
-0.103899
-0.244023
-0.0959101
-0.142592
0.211506
0.20876
0.205329
0.203535
0.220377
0.215502
0.218653
0.215059
0.21667
0.218431
-0.0260662
-0.0432042
-0.0904686
-0.167535
0.297203
0.37205
0.23067
0.244773
0.154136
0.0418509
0.0326396
0.0309137
0.0303608
0.0655636
0.0700027
0.0816558
0.0830148
0.0580772
0.0556526
0.0645828
0.0670047
0.0714655
0.205044
0.202591
0.20868
0.213452
0.168832
0.173835
0.146348
0.162859
0.148554
0.0973741
0.131059
0.109651
0.0112334
0.00725059
0.00849637
0.029001
0.0350739
0.0220345
0.016758
0.0220917
0.0180309
0.0143587
0.0234528
0.0249755
-0.235739
-0.376277
0.678119
0.560078
0.325305
0.211149
0.215302
0.210884
0.212766
0.216877
0.22236
0.221926
0.215114
0.202655
0.203605
0.20084
0.20038
-0.203315
-0.382281
-0.295847
-0.359861
-0.352522
0.31847
0.0780812
0.0134759
0.0127547
0.210948
0.741642
0.508773
0.493698
0.503183
-0.530895
-0.159437
-0.476502
0.140017
0.0104166
0.455665
0.506925
0.53001
0.476709
0.429518
-0.531968
0.189048
-0.312632
-0.279718
-0.141765
-0.210913
0.501566
0.368544
0.378173
0.422392
0.456853
0.380323
0.357597
0.357905
0.406257
0.406853
0.173519
-0.0116985
-0.0634609
-0.0973147
0.356216
0.223566
0.277682
0.198509
0.205224
0.208655
0.207494
0.194199
0.200941
0.199126
0.200265
0.202809
0.211413
0.211024
0.208047
0.210953
-0.0177545
-0.0136965
-0.0318652
-0.187683
-0.176322
-0.262007
-0.0988297
0.138692
0.110076
0.305257
0.387932
0.075747
-0.0813252
-0.0556099
0.038212
0.163889
0.171735
0.11881
0.169578
0.171622
0.143111
0.214944
0.204074
0.0478613
0.0594844
0.0431792
0.0385126
0.102137
0.126218
0.121277
0.0576043
0.059186
0.0368127
0.0352068
0.086205
0.0573817
0.0681646
0.0726521
0.0319559
0.0324489
0.0364261
0.0488721
0.0455197
0.0504551
0.200719
0.200953
0.202128
0.214395
0.222579
0.23682
0.209558
0.188243
0.179074
0.182934
0.163226
0.174697
0.16564
0.175288
0.189412
0.19655
0.19859
0.198833
0.187078
0.18826
0.181427
0.182447
0.159998
0.143109
0.132513
0.0261238
0.0155837
0.0238058
0.0190719
0.0159945
0.0193373
0.0508549
0.0417725
0.0454882
0.0416255
0.047027
0.0246122
0.022444
-0.0901084
0.035253
-0.302775
-0.28099
-0.406387
0.660804
0.730427
0.562946
0.477261
0.505165
0.603564
0.631355
0.402999
0.477784
0.479121
0.554982
0.719595
0.210992
0.21216
0.210642
0.207951
0.209225
-0.167388
-0.21808
-0.230393
-0.264204
-0.274598
-0.294892
0.133908
0.474487
0.458805
0.159691
0.313398
0.329697
0.270898
0.298322
0.302457
0.131966
0.204619
0.255305
0.216066
0.250948
0.270485
0.245706
0.265511
0.218839
0.180145
0.182164
0.128981
0.135139
0.11724
0.105361
0.201676
0.179414
0.188331
0.180053
0.204539
0.228211
0.220219
0.238643
0.256517
0.18805
0.153298
0.15992
0.183434
0.152664
0.165511
0.175409
-0.901533
-0.952873
-0.469299
-0.605775
-0.551033
-0.446578
-0.516268
-0.586542
-0.382647
-0.978238
-0.88778
-1.4326
0.0504816
0.78248
0.489512
0.399633
0.459255
0.431069
0.438879
0.49641
0.482817
0.344461
0.362391
0.368969
0.315608
0.340434
0.410906
0.389375
0.147637
0.0411573
-0.0136959
0.00679528
-0.104144
-0.0871083
0.122707
0.0509725
-0.0163419
-0.00800988
0.178935
0.0688539
0.130493
0.165862
0.0792762
0.0616807
0.23949
0.310573
0.294384
0.265981
0.18681
0.198948
0.235024
0.275216
0.296307
0.336652
0.200861
0.206495
0.207543
0.203217
0.202813
0.204872
0.204673
0.205561
0.207404
0.207687
0.207307
0.027784
0.0358037
0.00729664
0.0148063
0.0355067
0.0218072
0.0640509
0.0446142
0.0471834
0.0496108
0.0250376
0.00810569
0.0208053
0.0355172
0.159919
0.193225
0.187334
0.13916
0.252815
0.348602
0.399636
0.35485
0.220113
0.240395
0.276851
0.0961926
0.0990131
0.0859026
0.111934
0.108405
0.0436802
0.0404087
0.0429533
0.0500777
0.0476338
0.0364535
0.0286087
0.029974
0.0312524
0.0338498
0.0332052
0.189637
0.184644
0.18398
0.178426
0.179034
0.191297
0.194157
0.194666
0.196643
0.198059
0.193112
0.196782
0.198113
0.0369894
0.0266239
0.0302343
0.0313126
0.029869
0.025809
0.0266089
0.227771
0.13261
0.22805
0.0941645
-0.160986
-0.0526922
0.289806
0.489223
0.326531
0.622951
0.588194
0.400977
0.42709
0.627391
0.404306
0.603215
0.538098
0.691619
0.660023
0.739734
0.595721
-0.429271
-0.26693
-0.124041
-0.816549
-0.570292
-0.100324
-0.171448
-0.124786
-0.196181
-0.129823
-0.238181
-0.287794
-0.400065
-0.025154
-0.15443
0.0189813
-0.298631
-0.311053
-0.0231577
-0.53275
-0.256471
0.306545
0.327083
0.342239
0.313524
0.340175
0.262978
0.257147
0.270881
0.28537
0.275238
-1.12751
-0.981141
-1.6548
-0.879461
-0.518366
0.147723
-0.0659286
0.513247
0.361771
0.461861
0.421175
0.37929
0.322779
0.325791
0.373961
0.0535236
0.155362
0.132211
0.14089
0.0424176
-0.0142884
0.285035
0.274855
0.317245
0.337231
0.30522
0.338726
0.199864
0.19781
0.20072
0.197148
0.191264
0.191737
0.11219
0.0820786
0.120797
0.104868
0.071767
0.061685
0.0436344
0.0391914
0.0362033
0.036244
0.0415122
0.0444035
0.226542
0.172266
0.0995624
0.191089
-0.171736
-0.105174
-0.187046
0.00167524
-0.0535416
-0.101561
0.455156
0.605373
0.534855
0.56741
0.479765
0.480308
0.172468
-0.119245
-0.0260459
0.105774
0.227104
-0.171191
-0.7397
-0.535319
0.590151
0.605119
0.387619
0.244831
-0.0253287
0.209062
0.201637
0.134296
0.189182
0.27192
0.272912
-0.502152
-0.452864
-0.314964
-0.247068
-0.928061
-0.492901
-0.598856
-0.536962
-0.757491
)
;

boundaryField
{
    wall-4
    {
        type            zeroGradient;
    }
    velocity-inlet-5
    {
        type            zeroGradient;
    }
    velocity-inlet-6
    {
        type            zeroGradient;
    }
    pressure-outlet-7
    {
        type            fixedValue;
        value           uniform 0;
    }
    wall-8
    {
        type            zeroGradient;
    }
    frontAndBackPlanes
    {
        type            empty;
    }
}


// ************************************************************************* //
