/*--------------------------------*- C++ -*----------------------------------*\
| =========                 |                                                 |
| \\      /  F ield         | OpenFOAM: The Open Source CFD Toolbox           |
|  \\    /   O peration     | Version:  4.0                                   |
|   \\  /    A nd           | Web:      www.OpenFOAM.org                      |
|    \\/     M anipulation  |                                                 |
\*---------------------------------------------------------------------------*/
FoamFile
{
    version     2.0;
    format      ascii;
    class       surfaceScalarField;
    location    "7";
    object      phi;
}
// * * * * * * * * * * * * * * * * * * * * * * * * * * * * * * * * * * * * * //

dimensions      [0 3 -1 0 0 0 0];

internalField   nonuniform List<scalar> 
1300
(
3.75095
5.62643
-6.39707
3.75095
-6.25778
5.62643
-4.89547
4.89547
-1.577
1.577
1.87879
1.87216
-5.31197
5.31197
-5.34114
5.34114
-2.95979
2.95979
-5.24694
5.24694
-5.06855
5.06855
4.68827
-4.68827
-5.13515
5.13515
-2.0659
2.0659
-5.87226
5.87226
3.14397
-3.14397
-5.37482
5.37482
-0.623148
0.623148
-0.547197
4.29815
3.20376
3.20376
-2.75555
2.75555
-4.8688
4.8688
6.21809
-6.21809
9.67975
-9.67975
-3.28268
-3.33558
1.31772
-8.05243
-4.94006
-4.94006
-8.43996
8.43996
-2.81353
2.8129
3.09158
-3.09158
-1.20367
1.20367
-4.60781
-0.28766
-4.60781
5.32443
-0.428961
5.32443
-1.75693
0.179933
-1.75693
4.14711
-4.14711
1.40818
0.168817
1.40818
3.03225
-3.03225
-1.87893
3.75772
1.87202
-1.86976
6.16791
-1.8812
3.75336
-4.7885
4.7885
-5.48207
0.170103
-5.48207
5.24389
0.0680787
5.24389
-5.33116
5.33116
-5.31365
-0.0274996
-5.31365
5.36193
-0.0207879
5.36193
3.15941
-3.15941
-3.0096
0.0498089
-3.0096
2.89924
0.0605488
2.89924
0.353401
5.27303
-5.97983
8.79273
-5.27303
0.0260925
5.20798
0.0389578
5.20798
-5.10584
0.0372947
-5.10584
5.01197
0.0565746
5.01197
4.80638
-0.118109
4.80638
-4.78657
0.0982971
-4.78657
-3.27091
-3.34881
-5.21683
0.0816839
-5.21683
-2.08284
0.0169418
-2.08284
2.064
0.00190358
2.064
-3.8207
3.8207
-5.98164
0.109381
-5.98164
3.07472
0.0692475
3.07472
1.87172
1.87923
5.62267
-5.62267
2.4787
-5.36989
-0.00492682
-5.36989
-5.40008
-4.27967
5.40008
-0.0252602
-0.957212
0.334064
-0.957212
3.13548
0.0682806
3.13548
2.85518
0.0440561
-2.85518
0.0996351
3.55127
-3.55127
2.09976
0.65579
2.09976
-5.56637
5.56637
4.95607
0.0559014
-4.95607
0.0872672
6.1568
0.0612839
6.1568
-6.20047
-0.0176138
-6.20047
3.33831
-6.67389
-3.29242
5.0421
0.0930517
-5.0421
0.102031
3.10341
-0.011831
3.10341
-3.04982
3.04982
-3.07179
-0.0197889
-3.07179
-1.88812
0.684451
-1.88812
0.743705
0.459967
0.743705
-4.4449
-0.162911
-4.4449
-5.71768
-0.263964
5.71768
-0.393248
1.9183
-1.9183
-1.89219
0.13526
-1.89219
-4.26581
-0.179081
4.26581
-0.118704
-4.05792
-0.0891856
-4.05792
-3.05583
-0.0159601
3.05583
-0.0235803
3.06609
0.0693861
-3.06609
0.0338411
-1.87105
3.75028
-1.87991
3.75192
-4.59058
-0.197919
-4.59058
5.01869
-0.23019
5.01869
5.69266
0.179605
-5.69266
0.210582
5.26526
-0.0213677
5.26526
-5.27889
-0.0522641
-5.27889
5.34595
-0.0147887
5.34595
5.2977
-0.032443
-5.2977
-0.0159434
5.36428
-0.00235197
5.36428
3.18817
-0.0287634
3.18817
-3.13571
-0.0236998
-3.13571
3.02708
-3.02708
3.01808
0.00900422
-3.01808
0.00847988
-11.1319
11.1142
-0.0345931
-11.0973
5.17339
5.17339
4.25195
0.554428
4.25195
-5.0011
0.21453
-5.0011
3.28748
-6.5799
3.28597
-6.55688
3.37065
-11.4231
3.31097
-6.65979
5.29346
-5.29346
5.26336
0.0301039
-5.26336
0.0465287
-2.0944
0.0115598
-2.0944
-3.58519
-0.235508
-3.58519
4.10094
-0.280242
4.10094
-3.01745
3.01745
-3.02645
0.00900673
3.02645
0.0482701
5.36147
0.00281029
-5.36147
-0.00841412
1.20537
0.202811
-1.20537
0.248156
3.72376
-0.172486
3.72376
-3.36211
-0.189164
-3.36211
-2.06991
-0.0244894
2.06991
0.0298458
-5.81634
0.249962
-5.81634
-11.191
0.0937511
-11.1521
-6.10672
-6.10672
2.33324
11.126
-3.12224
-0.0134689
3.12224
-0.0188322
3.03089
-0.0134394
-3.03089
-0.0189322
-3.04568
0.0186
3.04568
0.00413539
-2.53121
0.64309
-2.53121
-0.909445
0.909445
-0.652963
-0.256481
0.652963
0.0907414
2.40575
-0.487446
2.40575
1.98845
0.0755507
-1.98845
0.0962575
-3.9342
-0.123721
-3.9342
5.19574
-0.177054
5.19574
-3.25558
-0.106522
3.25558
-0.0674103
-0.0332934
11.1475
-5.14009
0.0342508
5.14009
-11.2088
11.2431
-3.29402
0.762812
3.29402
0.957928
5.28989
0.276484
-5.28989
0.288792
5.32726
0.0186854
-5.32726
0.0337978
-3.38613
-0.199059
-3.38613
-4.3643
-0.226271
4.3643
-0.263361
-11.473
-0.204412
11.6774
-11.4164
6.02075
0.136055
-6.02075
11.3791
-1.442
-0.476304
1.442
-0.532553
2.80683
-0.401086
2.80683
3.8754
-0.151641
-3.8754
-0.0588074
-5.2473
-0.0315903
5.2473
-0.0515638
-3.17325
-0.212881
3.17325
-0.36642
-4.25089
4.31917
1.91702
-3.32192
-3.35197
-7.60159
1.83153
1.91875
4.31024
-7.04014
-4.38294
-6.93811
7.24975
-6.96096
-9.30869
9.19058
7.36329
-7.45247
-5.78332
5.83159
6.35911
-6.38269
1.87976
1.87796
10.6419
-10.4718
-10.2985
10.1006
10.2326
-10.2601
10.652
-10.7043
-12.2631
12.2818
-5.68935
5.73916
-6.61012
6.58642
-6.7314
6.66399
-3.32604
-3.23084
8.99728
-8.91559
11.7169
-11.7219
-11.0402
11.1495
3.3301
0.989074
3.39948
-1.88609
3.76585
-1.86727
3.78429
3.26153
-6.58757
3.31837
-6.67034
6.02094
5.69598
-5.99568
-1.60591
-5.85085
5.83902
-5.81165
5.81579
8.18406
-8.47172
-1.88724
3.7652
-1.86469
3.78343
-3.42456
-2.35875
3.35532
0.954921
5.55215
3.44512
-5.6452
-1.29291
-7.52767
7.37603
-7.83531
7.64615
-0.424283
5.81035
-5.38606
4.44452
-1.5556
7.36594
5.69416
5.90869
5.86007
-5.58358
1.10089
-6.48696
-6.39969
-2.66133
2.79659
2.65089
-2.48207
5.64511
1.71817
5.52641
-5.37536
-2.07712
-5.49908
3.83614
1.99545
3.84514
4.05387
2.30524
4.03791
3.04935
-3.03041
-0.0189376
-3.11439
6.16374
0.734787
-5.47314
-4.51822
6.8538
3.78806
6.92187
-7.20716
-3.26459
-6.99658
-6.20064
-4.09785
-6.42691
6.60209
3.49848
6.3719
-7.85176
7.8002
6.79143
3.4412
6.77064
-6.82137
-3.43876
-6.83731
10.3659
-2.69148
-7.67442
-6.88675
-5.37638
6.90153
3.7505
7.45232
4.82949
7.48612
3.55385
6.81205
-7.30436
1.92798
-3.81909
-1.87026
-3.81061
3.70038
2.03878
3.76092
-4.15113
-2.45899
-4.1646
-4.20565
-2.52575
4.23441
2.35201
-4.27935
-3.55596
4.38587
2.27812
3.01896
-7.4019
3.64083
-6.87167
-6.24917
-2.66642
-6.20264
3.99417
2.72418
-6.71835
-2.59339
10.8696
-5.17366
9.26373
-7.3008
-4.42106
-7.30921
-8.06483
-2.97532
-8.3288
-5.72248
5.52342
-5.84378
5.56354
10.6502
-5.47407
-5.17613
-3.86792
-2.51477
3.83408
-0.434597
-3.79925
3.78031
-0.0334026
3.75089
4.73996
4.30536
-3.84702
-1.96463
-3.86595
3.82247
1.99332
3.84107
7.11996
1.0641
6.69099
-6.00699
-2.46473
-6.1699
9.16409
-8.47964
2.94124
-2.96573
5.10451
2.54163
-4.93203
-2.59564
5.91923
-2.90394
-3.01529
-12.2145
10.4989
1.71558
-4.84857
-0.404044
0.219103
-5.48028
-3.82842
5.38198
0.526709
11.0256
7.19722
-5.51015
5.76011
6.16727
6.22317
-0.176525
5.95691
-5.1941
5.46701
-2.58079
-2.88621
4.91238
-5.09146
-1.25752
-5.01818
3.76066
0.434945
1.8444
-1.51033
-2.14809
-0.513245
-2.05183
1.59338
1.05751
1.79619
1.00575
1.79084
-2.88159
0.511298
2.37029
-1.87584
-1.97077
-3.47028
-1.18281
4.65309
5.41592
1.96011
-5.35711
-0.141963
2.82146
-2.81955
-0.770093
-2.70019
1.96952
-2.73961
-3.3849
-1.83954
5.22444
-3.33804
-0.52791
3.35148
0.49366
-3.76544
-2.08541
3.78523
0.252679
-3.06152
6.11521
-3.05369
-5.02615
2.57366
3.59008
4.5691
-4.8544
2.47275
2.38165
-1.26432
5.96162
0.960258
5.94025
-9.19224
5.92765
7.59027
3.55927
-7.76988
0.773295
-8.41895
9.6203
-8.30129
-1.31901
4.99597
4.62433
5.18661
5.46359
-3.8854
9.07202
-0.949219
-7.35207
9.36816
-5.8089
5.48256
-11.2915
-10.9462
3.59408
-6.88552
8.48666
-1.60114
-2.41967
-5.43209
9.30519
-0.762753
-8.54244
5.60915
-5.29731
-5.29316
10.5905
-7.9888
8.73192
-2.62246
-6.10946
-6.64752
-4.05678
6.67911
1.12109
-9.83191
11.7599
-3.01985
5.89183
0.878806
5.88948
3.88386
-6.00732
2.12346
4.10493
-6.7274
2.55484
-8.56217
-4.77147
9.39717
-4.6257
-7.4379
-6.61264
-0.825253
2.02093
9.73895
-6.85042
5.29906
1.55136
3.32291
0.518164
-3.33191
-0.478696
0.328375
4.40797
-4.73635
4.0893
4.13336
3.28761
1.12037
3.81307
2.02595
-3.79424
-0.370365
-3.98975
1.46399
-1.63773
-3.39387
4.85787
-3.85267
0.458794
-2.61594
-3.45651
6.07245
-4.4862
3.04671
3.06849
5.04003
-4.7444
1.28789
-2.33533
-2.40906
2.56478
-4.20252
1.84104
3.01683
4.11916
0.563195
4.71897
4.67821
-7.44314
0.571473
8.12333
-6.83043
1.64099
5.84512
-6.94006
0.327413
-5.87523
1.1722
-6.34586
-5.54615
5.69232
-8.66764
-5.59914
7.16255
-0.471552
-6.7693
-1.5595
-3.94122
-1.78126
-4.1541
-1.79554
-4.04824
-5.68095
-1.23967
-4.44128
4.28375
-4.35745
-2.06946
4.62081
0.942725
-5.15488
4.67857
-4.84037
4.43929
0.0771484
3.70316
4.38251
1.86775
-2.43885
4.30659
-5.10362
6.16772
-6.47063
1.36701
3.31245
-5.77717
-3.15818
4.67533
4.48876
5.13529
7.36626
-12.7158
5.34949
-9.83047
9.25134
0.579131
-14.1955
4.36501
-6.82921
2.72864
0.212601
2.7402
0.674244
2.33656
-3.01081
-2.29149
-2.26164
-2.17237
-3.21634
5.38872
1.02045
-3.18452
2.16407
-3.3117
4.33215
-0.0551986
-3.12933
5.20251
-2.86595
5.41512
-3.3669
2.04822
3.05328
5.3017
-2.24842
4.16113
-1.6195
1.65085
-3.89927
-1.56549
-2.95418
4.99295
-3.11827
3.57707
-0.256605
3.83367
-3.88852
0.984583
-0.600916
3.53244
3.63207
4.12953
-3.00917
2.78503
-4.40453
-1.11424
-3.84134
-0.824506
-3.24371
-3.57764
6.82135
5.6384
-8.8821
-6.14902
10.1357
-3.98667
8.02866
-5.76245
-2.26621
-4.3195
-4.16014
3.67641
2.2805
10.3092
0.103627
-5.86608
-5.09047
-4.13255
2.86469
2.60231
-1.92254
3.63812
1.70343
0.140963
0.636088
1.1601
1.89152
-1.25544
0.102073
1.78945
-1.40826
2.08704
0.734413
-2.16259
0.110761
-1.38344
3.35296
0.986846
-2.04436
0.788918
0.932169
-3.51296
4.85417
-2.5802
-2.27397
5.78634
0.918723
-3.49892
4.09946
-3.66451
2.03339
-3.21619
-1.46553
-5.13005
-3.41187
-2.3332
4.49727
-3.05552
5.01563
1.11237
-4.87366
5.98603
-3.3391
1.49956
-2.97885
3.71327
-0.993046
-1.98581
2.59874
2.62571
-2.79363
0.0934429
-0.194897
2.15353
-2.34843
-0.586082
-2.46192
-4.56138
4.81406
-2.05045
4.52321
2.25614
-1.89035
6.41356
1.82861
-3.71896
-3.19754
-3.72545
-1.33731
3.23179
-0.973703
-5.86361
-7.08316
5.89605
0.0441994
-9.13478
10.2513
-1.11648
-5.34671
-0.580934
5.5769
-7.48739
0.759994
-4.93255
5.31871
6.27897
6.32317
-8.39004
-0.152395
-4.89156
1.23095
-6.1225
5.85527
-2.95286
6.54694
-7.06188
4.99242
-6.11915
5.22794
-0.894568
5.56346
-3.44
2.11096
-6.16775
-5.04666
6.96741
-3.52621
7.84622
-4.04441
11.8906
-7.06426
6.90437
4.98626
-1.36961
-5.9396
-6.85706
5.48745
0.0473129
5.93679
4.84008
-2.81413
4.46972
2.19179
-4.52712
-2.01073
-6.34288
1.81576
-3.27439
-1.84883
3.66459
3.1912
3.70936
1.25553
-3.23067
6.54755
-7.37281
-1.92185
-3.62429
6.7638
-1.27635
4.00312
-7.62741
-2.34275
5.8359
-1.48721
-4.34869
-0.361825
-5.23732
3.38175
-8.61907
5.28589
-6.84539
1.72216
-8.55138
-3.43272
-3.96527
-1.74506
-3.09532
-5.46082
3.71576
-1.09581
3.58276
-6.80172
5.31452
-2.44961
6.16538
-3.42213
-0.731968
3.78855
0.650738
6.81612
0.562719
-3.7209
-2.91362
4.20153
-1.28791
-0.048927
-3.01492
1.18661
2.32802
3.45832
-6.08868
0.311512
-3.40939
-3.22743
7.7162
6.90825
12.5466
-0.169107
9.19091
-1.47471
9.0218
3.66059
3.75133
-2.33788
7.68737
4.48347
5.85048
-0.846214
2.89443
1.89398
1.91093
0.908626
2.21723
1.41485
3.20181
0.191001
-2.07064
4.82945
-8.962
-1.03662
-8.40757
0.783014
5.74856
-4.96555
3.50966
-0.907346
2.22175
0.0220696
-2.07431
2.05224
-2.86414
-1.93335
-0.143894
-1.5198
2.30872
1.83316
-2.16483
-0.699315
0.340936
-3.75281
2.87525
-2.78181
-0.156106
5.82993
-2.59776
0.249329
-1.09819
-2.21259
-2.72583
2.61507
6.12015
0.293407
3.06646
5.10747
3.02205
0.207924
4.439
-6.04014
-4.12316
-6.19253
-0.337262
5.23964
2.0234
7.71555
7.00966
5.73331
-1.8941
-9.26691
6.94467
0.742693
7.52381
-3.17512
-5.44395
5.58471
0.583013
-5.11316
-1.73223
-7.17619
-6.43349
-0.452425
5.76694
-6.36369
5.63172
3.85046
0.590813
-3.30914
-0.656131
3.56562
0.185708
9.20751
-0.991151
-7.01468
8.00583
-4.75741
3.72079
0.820127
2.81799
2.87237
1.96502
-5.04966
-10.0152
-1.96471
-1.54825
-4.23868
0.414406
-2.24757
6.57791
-2.85712
4.3117
5.14871
7.37047
-3.14585
-5.73625
7.13252
-2.82082
4.54965
)
;

boundaryField
{
    wall-4
    {
        type            calculated;
        value           uniform 0;
    }
    velocity-inlet-5
    {
        type            calculated;
        value           uniform -3.75095;
    }
    velocity-inlet-6
    {
        type            calculated;
        value           uniform -5.62643;
    }
    pressure-outlet-7
    {
        type            calculated;
        value           nonuniform List<scalar> 8(6.39707 6.25778 6.61826 6.73471 6.61972 6.63073 6.57345 6.68163);
    }
    wall-8
    {
        type            calculated;
        value           uniform 0;
    }
    frontAndBackPlanes
    {
        type            empty;
        value           nonuniform 0();
    }
}


// ************************************************************************* //
