/*--------------------------------*- C++ -*----------------------------------*\
| =========                 |                                                 |
| \\      /  F ield         | OpenFOAM: The Open Source CFD Toolbox           |
|  \\    /   O peration     | Version:  4.0                                   |
|   \\  /    A nd           | Web:      www.OpenFOAM.org                      |
|    \\/     M anipulation  |                                                 |
\*---------------------------------------------------------------------------*/
FoamFile
{
    version     2.0;
    format      ascii;
    class       volVectorField;
    location    "7";
    object      U;
}
// * * * * * * * * * * * * * * * * * * * * * * * * * * * * * * * * * * * * * //

dimensions      [0 1 -1 0 0 0 0];

internalField   nonuniform List<vector> 
918
(
(0.985521 -0.00226905 0)
(0.00496308 2.9662 0)
(0.000349998 1.70007 0)
(0.976157 0.00434855 0)
(-0.00437584 1.66765 -7.39015e-22)
(-0.00710346 2.94898 -8.85128e-19)
(0.896882 1.27901 2.51405e-19)
(0.528604 0.278067 -3.91316e-21)
(1.00001 -0.000942174 0)
(0.0419769 1.58662 0)
(-0.00590602 1.60532 0)
(0.886716 0.00537499 0)
(0.0113496 2.93062 0)
(0.00178642 2.79532 0)
(-0.0157839 3.16628 4.27689e-19)
(0.000685226 1.62081 -9.5067e-21)
(0.661784 0.127791 2.34216e-19)
(0.216381 1.84851 2.18757e-19)
(0.95545 0.0177581 0)
(-4.54523e-06 1.61826 0)
(0.191957 0.304257 -2.14443e-19)
(1.0014 -0.00479527 0)
(1.00149 -0.0087016 0)
(0.976001 -0.00581178 0)
(0.826112 -0.0191974 0)
(0.00548697 2.64724 0)
(-0.0148382 2.91071 2.97053e-19)
(-0.00878533 1.71166 0)
(-0.00129211 1.76594 0)
(-0.002783 1.72702 0)
(-0.00576923 1.79478 0)
(-0.00588547 1.68567 5.737e-22)
(-0.00494148 1.62933 0)
(-0.020379 2.9876 -3.12603e-23)
(-0.0169366 3.00526 7.02933e-19)
(0.00192887 2.99998 0)
(0.931683 0.00551795 0)
(0.210306 0.658158 -4.08338e-20)
(0.839918 1.32531 -2.91749e-19)
(1.00202 1.07601 3.27983e-19)
(0.725431 1.53957 -5.69244e-20)
(0.791862 1.51102 3.38944e-19)
(0.576139 0.340924 3.81571e-21)
(0.575923 0.255323 0)
(1.19926 0.594812 0)
(0.530582 0.343776 1.80442e-20)
(0.5013 0.276788 -1.87351e-20)
(0.915641 0.00330027 0)
(1.00112 0.000157546 0)
(1.00003 0.000614234 0)
(0.99975 -0.00649698 0)
(1.00075 -0.00176691 0)
(1.00056 -0.000464817 0)
(0.0261894 1.54895 -2.25164e-19)
(0.0358701 1.7062 0)
(0.0777946 1.6289 0)
(0.00669525 1.67829 0)
(0.0133 1.55372 0)
(0.00127304 1.62798 0)
(-0.0114218 1.67559 0)
(-0.00754749 1.59501 0)
(-0.00734787 1.69154 0)
(0.000265546 1.60821 0)
(0.950813 0.00351614 0)
(0.941147 0.00959442 0)
(0.904361 0.00269424 0)
(0.927062 0.0162209 0)
(0.869551 0.010781 0)
(0.0151463 3.00081 3.17914e-19)
(0.0115465 3.00927 0)
(0.00656652 3.00202 0)
(0.0140398 2.99744 3.5292e-24)
(0.00810209 2.95866 -4.81336e-19)
(0.0154109 2.98201 0)
(0.0113951 2.90326 0)
(0.0257966 2.92984 6.43097e-25)
(0.00523357 2.82487 0)
(0.0316151 2.91492 0)
(-0.00883714 2.74682 0)
(0.329392 3.58938 0)
(-0.145246 3.67009 0)
(0.151561 3.26218 -3.94787e-19)
(-0.00527123 2.98401 0)
(-0.00874458 1.76398 0)
(-0.00169747 1.6933 9.37583e-21)
(-0.00131966 1.63144 -1.20152e-20)
(0.70368 0.170109 -8.03592e-20)
(0.673493 0.0975896 -7.89182e-20)
(0.697351 0.199311 -2.43149e-19)
(0.654647 0.164991 -1.64333e-19)
(0.218036 1.31118 0)
(0.299529 1.93003 -2.48861e-19)
(0.459051 1.8671 4.12823e-19)
(0.977907 0.0131298 0)
(0.923613 0.0161404 0)
(1.00087 -0.000458994 0)
(1.00325 0.0105227 0)
(0.999213 0.0164095 -4.59632e-19)
(0.989775 0.0160867 3.49668e-19)
(-0.0034039 1.68569 0)
(-0.000444252 1.6205 0)
(-0.00659605 1.73304 0)
(-0.00537531 1.69552 0)
(-0.00230696 1.6269 0)
(0.313868 0.341689 6.8221e-20)
(0.342027 0.291802 0)
(0.993926 -0.0102807 0)
(0.949151 -0.00564111 0)
(0.90232 0.00852625 0)
(0.884607 0.00692711 0)
(0.859146 -0.0131093 0)
(1.06256 0.00220852 0)
(0.84473 0.0378784 0)
(0.759996 0.015278 3.14314e-19)
(-0.0368657 2.86393 1.77229e-19)
(0.0434301 2.90681 0)
(0.0582848 2.88181 0)
(-0.0114056 2.70322 0)
(-0.013805 2.98517 2.74546e-19)
(-0.018924 2.89559 0)
(-0.0160412 2.98791 -8.66742e-19)
(-0.0130166 2.92581 2.99805e-19)
(-0.000261689 1.78142 0)
(0.0025213 1.76883 0)
(0.00211761 1.69596 -2.20428e-22)
(0.0019106 1.69212 0)
(0.00483696 1.62153 0)
(0.97169 0.0044034 0)
(0.934906 0.005335 0)
(0.917843 -0.0069807 0)
(0.969908 0.004507 0)
(0.92457 -0.00324434 0)
(0.290692 0.942024 5.15146e-20)
(0.394134 1.079 0)
(0.241555 0.550288 -7.29232e-21)
(0.125906 0.213727 0)
(0.96535 1.13748 -9.28608e-20)
(1.06621 0.914787 2.06084e-19)
(0.434551 1.87263 0)
(0.598986 1.73789 0)
(0.669221 1.72027 0)
(0.372666 0.625938 -1.19244e-19)
(0.62422 0.305909 0)
(0.609067 0.224232 4.76026e-20)
(1.04722 0.971747 0)
(1.12271 0.809846 0)
(1.13621 0.752355 -1.88344e-19)
(1.18752 0.649425 0)
(1.24187 0.439266 2.84032e-20)
(0.964558 -0.000630285 0)
(0.954863 0.00271335 0)
(0.921215 0.000193989 0)
(0.972926 -0.00500352 0)
(0.955059 0.000401616 0)
(0.92338 -0.000325458 0)
(0.999384 0.00101819 0)
(1.00064 0.00201654 0)
(0.999587 0.00123705 0)
(0.0141943 1.59072 1.2093e-19)
(0.0320837 1.52116 0)
(0.016443 1.63013 2.00417e-19)
(0.0231247 1.59618 -1.72174e-19)
(0.142745 1.85449 -1.7915e-19)
(0.0313357 1.75198 0)
(0.146079 1.73834 0)
(-0.00806915 1.67055 0)
(-0.00045053 1.56867 0)
(0.00109779 1.68513 -5.40817e-22)
(0.00397288 1.61933 0)
(-0.000583169 1.6964 -2.79522e-20)
(0.000205808 1.63055 5.32772e-20)
(-0.0082606 1.68043 0)
(-0.00879914 1.67561 0)
(0.00230319 1.58329 0)
(-8.77071e-05 1.6939 0)
(0.00537618 1.60884 0)
(1.00308 0.00706099 0)
(0.959329 -0.00245222 0)
(0.987393 0.00656007 0)
(0.94365 0.0046342 0)
(0.906828 0.00198229 0)
(0.955455 0.00443454 0)
(0.951807 -0.00151894 0)
(0.904974 -0.00437174 0)
(0.00418648 3.06324 -2.69108e-21)
(0.0157635 3.05828 0)
(0.0154571 2.96895 0)
(0.0084363 2.87615 0)
(0.995501 4.05693 0)
(1.33967 3.31409 4.90157e-19)
(0.0720691 3.07732 0)
(-0.0223914 2.90922 0)
(0.00393541 1.75179 0)
(-0.00287613 1.74712 0)
(-0.00139146 1.75189 0)
(-0.00922783 1.78849 2.26781e-21)
(-0.00893495 1.77706 0)
(-0.00771992 1.78116 0)
(0.00196361 1.6187 1.21056e-21)
(0.00120992 1.6909 1.69917e-20)
(-0.00152749 1.69579 1.22857e-20)
(0.00649203 1.62268 0)
(0.737827 0.130438 1.19015e-19)
(0.694832 0.0524757 -1.15174e-19)
(0.194418 1.405 0)
(0.287996 1.2453 -9.49844e-20)
(0.130312 1.44072 -2.76998e-19)
(0.148071 1.37913 2.7641e-19)
(0.902909 -0.000302498 0)
(0.955047 0.00329764 0)
(0.961896 0.0113757 0)
(0.903534 0.00501189 0)
(0.00197646 1.69159 0)
(-0.00300398 1.68844 0)
(-0.000633778 1.6118 0)
(0.481679 0.357839 1.68494e-19)
(0.430649 0.356036 -2.09911e-19)
(0.444986 0.277055 0)
(1.17985 0.0819122 -6.5357e-22)
(1.16174 0.036925 0)
(1.09211 0.0387858 0)
(1.01081 0.010426 0)
(0.751404 0.0892957 0)
(0.781893 0.0788972 -5.06168e-19)
(0.711498 0.0378178 1.93127e-19)
(0.0101892 2.98065 2.05682e-19)
(-0.032907 2.86793 1.90695e-20)
(0.00261175 3.04917 -5.76188e-21)
(0.0213058 3.04313 2.14118e-19)
(-0.0153314 2.99647 9.933e-21)
(-0.012683 2.94976 -4.02475e-23)
(-0.0174863 3.01094 -1.86066e-19)
(0.0140561 3.02129 1.33736e-19)
(0.00657011 3.03648 -2.1423e-19)
(0.987667 0.00558596 0)
(0.981692 0.00547333 0)
(0.938084 0.00199253 0)
(0.956994 -0.00202496 0)
(0.959174 -0.00748581 0)
(0.908128 -0.00996287 0)
(0.959679 0.00565088 0)
(0.959828 -0.000962704 0)
(0.913434 -0.00267716 0)
(0.602133 1.37434 1.5276e-19)
(0.714734 1.50579 0)
(0.135521 0.143575 7.60845e-21)
(0.410839 0.506977 -2.3072e-20)
(0.336154 0.469254 5.40036e-20)
(0.0624281 0.0787685 -1.34705e-19)
(0.427854 0.977185 6.00151e-19)
(0.433103 0.864092 1.36103e-19)
(0.675833 0.244934 1.77234e-19)
(0.652078 0.273854 4.28159e-20)
(0.631622 0.200773 9.04205e-20)
(1.22569 0.487009 1.11359e-19)
(1.24097 0.276288 1.20757e-19)
(0.0109072 1.67446 7.99123e-20)
(0.00880949 1.63064 0)
(1.0391 0.0254753 0)
(1.00626 0.0131885 0)
(0.985127 0.00668797 0)
(0.0105688 3.07623 0)
(0.0210676 2.94437 3.72267e-19)
(0.0174092 2.95683 0)
(0.00646777 2.85039 -3.70965e-19)
(0.00486348 3.09364 8.65317e-20)
(0.00604001 3.08123 0)
(0.838796 1.85095 -9.25057e-20)
(1.28952 2.45219 1.94167e-19)
(0.836716 1.97298 -5.6549e-19)
(0.0210336 2.97997 -1.64463e-19)
(0.0362173 3.00189 0)
(-0.0324016 2.88132 0)
(-0.00309704 1.68717 -3.31397e-21)
(-0.00346897 1.69125 -3.80831e-20)
(-0.0025201 1.62645 -2.38853e-21)
(0.243682 1.34886 3.04035e-19)
(0.329107 1.21011 -2.09072e-19)
(0.0220418 1.55782 1.90895e-19)
(0.0772667 1.5185 -2.34018e-19)
(0.072132 1.45133 2.71493e-20)
(0.000810256 3.11794 -5.18478e-19)
(0.0150145 3.11742 5.83052e-19)
(-0.00957183 2.98051 2.4293e-19)
(-0.00349139 2.97743 -2.20255e-19)
(-0.0223248 2.88225 -2.47551e-19)
(0.00787073 3.09807 -6.39616e-19)
(0.000587456 3.10603 6.41022e-19)
(0.480743 0.846237 0)
(0.519116 0.653272 -2.54107e-19)
(0.284468 0.374141 1.22843e-19)
(0.417075 1.11193 3.97787e-19)
(0.432331 1.01465 -6.11465e-19)
(1.25438 0.175898 -1.83626e-20)
(1.24724 0.320978 0)
(1.24092 0.129628 4.76671e-20)
(-0.00770723 1.68737 -6.98172e-22)
(-0.00848919 1.6916 0)
(-0.00676709 1.62174 0)
(0.300715 1.3167 -1.09336e-19)
(0.371634 1.23155 -2.55003e-19)
(0.395225 1.15146 4.64323e-19)
(1.00531 -0.0270644 0)
(1.00668 -0.00966521 8.46378e-20)
(-0.00397978 1.78022 0)
(-0.0122787 1.78649 0)
(1.00231 0.0045037 1.1495e-21)
(0.999578 0.0156009 1.72269e-19)
(-0.00235437 1.78667 -3.04958e-21)
(-0.000794541 1.78621 0)
(0.0343762 3.17143 9.27048e-20)
(0.419209 3.48885 0)
(1.12478 0.614355 2.35727e-20)
(1.01531 0.0139969 -1.57411e-22)
(1.00455 0.0138045 0)
(1.00252 -0.00116226 1.00436e-22)
(0.0647555 1.83334 0)
(0.0576964 1.71531 0)
(0.000275876 1.79715 0)
(0.0172222 1.77887 3.72033e-20)
(-0.00312341 1.77644 1.96576e-20)
(0.992262 0.0208827 7.69279e-22)
(1.04366 0.00670807 0)
(1.06457 0.0273264 0)
(0.00601355 1.74941 0)
(0.000795043 1.77752 0)
(0.00252374 1.78796 0)
(0.221104 1.90307 -9.42633e-20)
(1.00545 -0.0304545 0)
(0.998736 -0.0305577 0)
(1.00668 0.00117597 1.06239e-19)
(1.00352 -0.00830834 -1.27393e-19)
(1.00234 -0.000962728 0)
(0.00794232 1.74852 0)
(-0.00129408 1.7771 0)
(0.00602846 1.75497 0)
(0.00245538 1.78744 0)
(-0.0092515 1.78309 0)
(-0.00769967 1.78623 0)
(1.01911 0.000686155 0)
(1.01424 0.00510073 -3.83038e-22)
(0.657216 1.20084 1.44327e-19)
(1.00228 0.00144264 -1.05696e-19)
(1.00471 0.0101277 1.29306e-19)
(1.00071 0.00190052 0)
(1.01642 0.0162681 1.01668e-19)
(1.00901 0.0165412 -1.28748e-19)
(1.00011 0.0221248 0)
(-0.000888146 1.78391 0)
(0.00206651 1.78724 7.97117e-21)
(-0.00311497 1.78274 -5.80948e-21)
(1.1607 0.243383 -6.48404e-21)
(1.09932 0.0801948 0)
(0.0333393 3.07176 -2.6938e-19)
(0.0663368 2.84684 -2.0067e-20)
(0.142482 3.19225 4.3186e-19)
(0.140982 3.22464 -2.57005e-20)
(0.129208 3.23407 0)
(0.0196502 3.13567 6.61766e-20)
(0.0742249 3.15894 2.60937e-19)
(0.0684389 3.18257 -1.27165e-19)
(0.0190044 3.12998 0)
(0.698236 0.348232 0)
(0.624138 0.3948 0)
(1.04965 0.629721 -8.99076e-20)
(1.07413 0.76812 1.40055e-19)
(1.1167 0.53381 0)
(1.16933 0.507527 0)
(1.01439 0.00956428 -1.93042e-19)
(1.01644 0.0011021 2.43914e-19)
(1.01052 0.0124982 0)
(1.01066 0.010413 0)
(1.01021 0.00271807 0)
(1.01937 0.00888568 0)
(1.006 -0.00189131 0)
(1.02422 0.0128137 0)
(1.01772 0.0152392 0)
(1.01423 0.00479377 0)
(0.0590822 1.82506 0)
(0.028255 1.81999 0)
(0.0845352 1.86429 0)
(0.0737477 1.86954 0)
(0.0502453 1.70489 0)
(0.050056 1.69157 -1.2756e-19)
(0.0606968 1.72986 0)
(0.064395 1.72881 6.81956e-20)
(0.00417427 1.7573 -7.2081e-20)
(-0.000876292 1.79706 0)
(-0.00274611 1.7959 0)
(0.000752508 1.80163 0)
(0.000393841 1.81035 0)
(0.00604802 1.77199 -2.14531e-20)
(-0.00326595 1.77837 2.73179e-20)
(0.00999314 1.78511 3.42872e-20)
(0.00250575 1.7827 0)
(-0.00345508 1.77821 -4.55053e-20)
(-0.00117032 1.77495 -2.7789e-20)
(0.0057564 1.7685 1.6753e-20)
(-0.00727078 1.76949 -3.55837e-20)
(0.00393299 1.7776 -4.1723e-20)
(1.00212 0.0166962 1.89192e-19)
(1.0062 0.00695456 -2.34155e-19)
(0.998861 0.0226168 -1.95804e-19)
(0.982533 0.0160606 2.47826e-19)
(1.03995 0.0109699 0)
(1.04384 0.00149224 0)
(1.05871 0.0254418 0)
(1.04259 0.00426972 0)
(1.06039 0.00890454 0)
(1.08773 0.0717896 0)
(1.06785 0.0471402 0)
(1.08608 0.0307475 0)
(0.0017399 1.78394 -9.14445e-22)
(0.0159253 1.75698 0)
(0.000349606 1.77356 0)
(0.00353943 1.77967 8.06886e-21)
(0.00916743 1.77854 -3.60321e-22)
(0.0132866 1.75698 9.10871e-21)
(0.00491394 1.75874 -9.20605e-21)
(0.000288259 1.78354 0)
(-0.00129625 1.78096 0)
(-0.00344334 1.77787 0)
(0.0001691 1.78937 0)
(-0.00152889 1.78878 0)
(0.310818 1.87209 1.53434e-19)
(0.33429 1.85535 7.75104e-20)
(0.307532 1.59314 -7.46647e-20)
(0.170052 1.62737 1.87495e-19)
(0.235603 1.72327 4.88562e-20)
(1.00437 0.00330707 0)
(1.00053 -0.0219802 0)
(0.987531 -0.0201089 0)
(1.02424 -0.0113194 0)
(1.01364 -0.0175739 0)
(1.00936 -0.0188717 0)
(1.00795 -0.0215531 0)
(1.01209 -0.0161995 0)
(1.0156 0.00100439 1.86085e-19)
(1.01817 -0.00198979 -2.34497e-19)
(1.014 0.0073284 -1.8551e-19)
(1.01285 0.00456528 2.30529e-19)
(0.652203 1.30877 0)
(0.554149 1.46749 1.60182e-19)
(0.784579 1.13126 1.14429e-19)
(0.853747 1.09683 -1.52665e-19)
(0.914858 2.6918 -4.12195e-19)
(0.838138 0.110289 1.19523e-19)
(1.10476 0.098445 0)
(1.14606 0.160697 8.16176e-21)
(1.14193 0.140752 4.72928e-22)
(0.963801 0.106246 0)
(0.126765 2.95781 1.20117e-19)
(0.106547 2.86411 -3.74156e-19)
(0.00448827 2.40957 2.38056e-19)
(0.106709 0.197611 -9.00171e-20)
(0.367385 3.43171 -1.42167e-19)
(0.21227 3.31249 0)
(0.242099 3.3523 1.85009e-19)
(0.262194 3.01485 -4.58599e-19)
(0.360445 3.17588 0)
(0.004594 3.12096 1.37687e-20)
(0.0146228 3.12905 -1.72259e-19)
(0.0118153 3.12515 2.52628e-19)
(0.0335423 3.13908 0)
(0.0326228 3.14878 0)
(1.10706 2.71919 0)
(0.629919 0.805611 -1.02016e-19)
(0.967747 0.926023 -7.12541e-20)
(0.884477 0.983115 0)
(0.756755 0.920565 2.76621e-20)
(0.989224 0.796676 8.76618e-21)
(0.364713 0.472066 -2.73871e-19)
(0.720956 0.340645 -9.24981e-21)
(0.730846 0.30323 9.2281e-20)
(0.620868 0.434433 7.87052e-21)
(0.556936 0.415642 -3.28078e-19)
(0.693496 0.376435 0)
(0.694139 0.428259 1.53954e-19)
(0.688322 0.410442 0)
(0.641606 0.420508 0)
(0.660036 0.375892 0)
(0.770822 0.552025 4.81253e-20)
(1.14897 0.256906 -1.91123e-21)
(1.15332 0.381033 0)
(1.19657 0.333312 0)
(0.799026 0.21153 1.39501e-19)
(0.7826 0.523294 -7.71775e-20)
(0.692515 0.484589 1.24135e-19)
(0.876512 0.400757 -1.15806e-19)
(1.01918 -0.00576124 1.27045e-19)
(1.01755 -0.00417202 -1.31036e-19)
(1.01784 -0.00498287 0)
(1.02109 0.00607417 0)
(1.01675 0.0132364 -1.20444e-19)
(1.02108 0.0065689 1.1849e-19)
(1.01385 0.00259762 0)
(1.01283 0.00253849 0)
(1.02609 0.00497838 0)
(1.02233 -0.000180531 0)
(1.02613 0.00469085 0)
(1.02835 0.00207042 0)
(0.0143062 1.81671 0)
(-0.00421785 1.81322 0)
(0.114229 1.84726 -3.26165e-21)
(0.208897 1.87998 4.97409e-20)
(0.0994587 1.89923 1.08956e-19)
(0.135368 1.89749 -1.75398e-19)
(0.120756 1.86795 0)
(0.10719 1.7741 -4.72205e-20)
(0.107671 1.78033 0)
(0.230629 1.71275 -7.06891e-20)
(0.191386 1.66958 2.27642e-19)
(0.132622 1.80365 4.20044e-20)
(0.1975 1.8486 1.49073e-20)
(0.150432 1.85965 -1.19363e-20)
(0.230036 1.80158 -4.49613e-20)
(0.185344 1.76554 0)
(0.18874 1.75678 4.29445e-20)
(0.0128535 1.76491 -2.03077e-20)
(0.0242204 1.7522 0)
(0.0666101 1.75149 7.53815e-20)
(0.0262751 1.74708 0)
(0.0599717 1.7383 -7.74774e-20)
(0.0406508 1.75 0)
(-0.00140041 1.7661 -1.7732e-20)
(0.00469312 1.76763 0)
(-0.00339916 1.77375 0)
(-0.003079 1.7693 2.00364e-20)
(0.00983116 1.77812 9.83041e-22)
(-0.00149664 1.76838 8.42895e-20)
(0.0019342 1.77346 5.80861e-22)
(-0.00698989 1.76352 1.57881e-20)
(-0.00437463 1.76171 9.36757e-21)
(-0.00193612 1.79375 0)
(-0.00101846 1.79231 0)
(0.015914 1.77897 4.90188e-20)
(0.00445377 1.77006 3.44682e-20)
(0.00550137 1.7707 -4.8375e-20)
(0.0271073 1.78933 0)
(0.00154641 1.75692 -3.00347e-20)
(0.00249393 1.76553 1.41685e-20)
(0.0025895 1.76778 -4.07469e-21)
(-0.00634999 1.76635 -1.90659e-20)
(1.76113e-05 1.77582 -6.33681e-21)
(-0.00442545 1.77711 3.05902e-20)
(1.01237 0.00140694 -1.24426e-19)
(1.01196 0.00363473 1.24697e-19)
(1.01197 0.000196625 0)
(0.990108 0.0622881 1.82366e-19)
(0.979119 0.0281698 -2.07385e-19)
(0.951216 0.017339 2.38237e-19)
(0.991706 0.0874263 -2.37112e-20)
(1.02321 0.00433117 0)
(1.03093 0.0130097 1.08429e-19)
(1.03149 0.00441251 -1.07694e-19)
(1.02063 0.0282638 -6.2168e-21)
(1.02487 0.0151305 5.51634e-20)
(1.00512 0.030498 0)
(0.994077 0.0261874 -1.91988e-20)
(1.00566 0.0189907 0)
(1.00175 0.0238863 0)
(1.01488 0.00285762 0)
(1.01507 0.00440718 0)
(1.00324 0.017847 4.08193e-20)
(1.00333 0.0200341 -9.12821e-20)
(1.00005 0.0249479 -4.32151e-20)
(0.992905 0.0167213 -4.79565e-20)
(0.998595 0.0444702 8.6841e-20)
(1.03762 0.0445478 0)
(1.03449 0.0857694 0)
(0.00592334 1.75754 -1.20286e-20)
(0.0213743 1.7573 -1.02924e-21)
(0.0176312 1.75412 0)
(0.00962642 1.77219 1.23988e-20)
(0.0100179 1.77711 1.84245e-21)
(0.0103691 1.77677 -1.99982e-21)
(0.00120557 1.77634 2.49972e-20)
(0.00530676 1.7736 -1.48107e-21)
(0.00323265 1.77264 6.94659e-21)
(0.00957796 1.77617 -1.28218e-20)
(0.00557208 1.77566 1.54152e-20)
(0.00641547 1.78062 2.84539e-22)
(0.00985919 1.7705 1.2147e-20)
(0.255288 1.79987 -6.25123e-20)
(0.235686 1.79329 3.78706e-20)
(0.539908 1.60225 -1.5536e-19)
(0.414964 1.78755 -7.45453e-20)
(0.464496 1.70347 0)
(0.345882 1.58955 7.85134e-20)
(0.390385 1.54831 1.12304e-19)
(0.213524 1.62771 1.78611e-20)
(0.209337 1.62253 -2.59359e-19)
(0.276557 1.63262 2.14924e-19)
(0.290502 1.62045 0)
(0.229474 1.6279 -1.62118e-19)
(0.071294 1.67059 3.30765e-19)
(0.14766 1.66414 -1.67406e-20)
(0.0823814 1.66573 -4.45256e-19)
(0.792947 1.50114 3.05676e-19)
(0.635552 1.47079 0)
(1.0339 -0.00905717 4.17772e-21)
(1.02312 -0.00557441 -3.54172e-21)
(1.02491 0.0146612 -6.22686e-20)
(1.0296 0.00824437 6.26947e-20)
(1.03359 -0.00549794 0)
(0.278714 1.19371 0)
(0.269142 1.05512 0)
(0.626716 0.940167 0)
(0.488026 0.829153 0)
(0.947171 2.67692 2.13757e-20)
(0.821039 2.3474 0)
(0.392294 2.70066 2.60367e-22)
(0.445758 2.07481 0)
(0.530984 2.25577 -1.87325e-19)
(0.49346 2.38677 1.18906e-19)
(0.842823 0.137127 0)
(0.824051 0.158908 3.44434e-20)
(0.909825 0.110073 1.75581e-19)
(0.861428 0.121474 -6.93898e-20)
(0.843811 0.0879757 -2.14813e-19)
(0.999689 0.197859 -1.13607e-19)
(0.910029 0.283074 -4.79306e-21)
(0.857371 0.256589 1.60306e-19)
(0.918005 0.192669 1.23637e-19)
(0.934042 0.141683 -2.22396e-19)
(0.915132 0.14824 2.84495e-20)
(0.907165 0.209262 -5.80779e-20)
(0.913961 0.176853 0)
(0.966495 0.127571 1.06421e-19)
(0.972217 0.134773 0)
(0.9688 0.178241 0)
(1.04159 0.103718 3.73733e-20)
(0.999616 0.131475 -5.92223e-21)
(0.997067 0.195343 -1.85225e-20)
(1.053 0.174784 0)
(1.00606 0.0255358 9.51134e-20)
(1.00328 0.0367542 1.12353e-19)
(1.00734 0.0270677 -9.24574e-20)
(1.01202 0.0519785 -7.56903e-20)
(1.00048 0.0594419 -1.28532e-19)
(0.951639 0.0936163 0)
(0.954714 0.0835543 0)
(0.941515 0.0394066 -8.5319e-20)
(0.909665 0.0545593 3.58974e-20)
(1.00298 0.0876432 1.07744e-19)
(1.00133 0.105901 -1.12109e-19)
(1.0104 0.119201 9.89234e-20)
(0.999837 0.123686 0)
(1.01069 0.090609 0)
(0.999224 0.0774194 -4.73337e-20)
(1.00724 0.0830767 -8.63322e-20)
(0.27043 1.6993 -2.01883e-19)
(0.480859 2.67762 1.80582e-19)
(0.954794 3.1132 1.77962e-19)
(1.20742 3.30215 -4.8939e-20)
(1.07072 2.89006 4.49764e-19)
(1.172 2.85723 -1.79328e-19)
(0.948007 2.32231 2.51337e-20)
(1.15739 3.22542 1.95146e-19)
(1.13637 3.21292 -2.73292e-19)
(1.22281 3.41946 -1.5902e-19)
(1.34443 3.127 1.87215e-19)
(1.3234 2.98905 0)
(0.627241 0.831167 1.19245e-21)
(0.0952736 1.25318 1.91784e-19)
(0.462784 0.621898 1.79079e-19)
(0.245915 0.36402 1.82181e-19)
(0.550054 0.453766 1.85575e-19)
(0.550038 0.494061 -2.95492e-19)
(0.533704 0.549357 2.43601e-19)
(0.491498 0.504163 -1.02911e-19)
(0.465421 0.428996 2.25631e-19)
(0.802843 0.255629 -7.76135e-20)
(0.756378 0.297693 0)
(0.758578 0.270066 4.86584e-21)
(0.678108 0.500993 7.8652e-20)
(0.6546 0.481275 -2.92045e-19)
(0.58449 0.517273 8.21273e-21)
(0.618874 0.477531 0)
(0.668065 0.695527 5.36047e-20)
(0.827424 0.737097 9.18524e-22)
(0.749776 0.833293 -6.6592e-21)
(0.835237 0.694993 -4.99814e-21)
(0.877398 0.787956 6.59097e-21)
(0.872772 0.76631 -6.77161e-21)
(0.805421 0.563169 -8.52122e-20)
(0.897181 0.635035 4.68025e-21)
(0.964729 0.656878 0)
(0.954484 0.638939 -7.2562e-21)
(0.941306 0.282675 3.04469e-20)
(1.05447 0.273752 1.15221e-20)
(0.976281 0.245948 4.58204e-20)
(0.9278 0.328221 -6.60372e-20)
(0.990566 0.387721 0)
(1.02906 0.379018 0)
(0.842056 0.335723 5.09992e-21)
(0.819366 0.300702 0)
(0.841164 0.275324 8.20723e-20)
(0.843024 0.265214 -3.09319e-21)
(0.870604 0.403984 3.16402e-19)
(0.816395 0.478516 8.04726e-20)
(0.816012 0.440408 -1.08108e-19)
(0.751089 0.418592 1.16301e-19)
(0.73381 0.420191 7.8587e-20)
(0.723145 0.407908 -7.61909e-20)
(1.0164 0.0118199 1.00572e-19)
(1.0169 0.0059765 0)
(1.0173 0.014317 6.78308e-20)
(1.01464 0.0132548 -1.51652e-19)
(1.01615 0.0060277 7.38037e-20)
(1.01628 0.0044091 -1.5696e-19)
(1.01636 0.000342035 0)
(1.01873 -0.00536712 -3.21063e-20)
(1.02087 -0.000763071 8.07022e-20)
(1.02216 -0.00406914 -4.12323e-20)
(1.02151 -0.00355497 3.00074e-20)
(-0.0074403 1.80737 0)
(-0.00604657 1.77643 0)
(-0.00899539 1.81082 0)
(-0.00797136 1.81021 0)
(0.0463391 1.80198 2.53887e-20)
(0.0652268 1.80835 -6.42241e-21)
(0.090354 1.78523 -1.58315e-20)
(0.0915979 1.80605 -4.00127e-21)
(0.0112132 1.78486 -3.0889e-20)
(0.0141718 1.79127 2.25104e-20)
(0.0354323 1.80431 -6.92983e-21)
(0.00619206 1.80532 -8.5083e-21)
(-0.00327354 1.79205 -1.14561e-21)
(-0.00785242 1.78438 -3.10963e-21)
(0.0719488 1.75967 -8.02904e-20)
(0.0737735 1.75138 0)
(0.0781967 1.74584 5.02904e-20)
(0.101508 1.77546 3.2392e-20)
(0.133258 1.7184 -3.59858e-20)
(0.105987 1.66565 0)
(0.120007 1.64856 -2.36841e-19)
(0.165518 1.65755 1.66847e-19)
(0.121848 1.72639 -9.74104e-20)
(0.0982261 1.72699 5.49366e-20)
(0.0558976 1.69396 0)
(0.0136103 1.77066 -6.01143e-20)
(0.0137442 1.77197 -7.44618e-20)
(0.0138686 1.77346 0)
(0.0135743 1.77126 -1.96058e-21)
(0.0132569 1.76631 3.02642e-20)
(-0.00138726 1.77591 3.11057e-21)
(0.00213586 1.78461 -5.01951e-20)
(-0.000494311 1.77588 1.25513e-20)
(-0.00678689 1.76043 1.8572e-20)
(0.000727957 1.76415 0)
(0.000159458 1.78142 0)
(-0.000918261 1.79101 1.35386e-20)
(0.00113826 1.78859 -4.11832e-21)
(0.00153114 1.78684 0)
(0.00134827 1.79168 1.0774e-20)
(-0.000292873 1.7902 -2.12027e-20)
(1.00988 0.0150435 0)
(1.01039 0.0167729 -1.01231e-20)
(1.00618 0.0169409 -7.38719e-20)
(1.01003 0.0229324 0)
(1.01126 0.0268198 0)
(1.00646 0.0101381 -2.15895e-21)
(1.00971 0.00803079 1.19822e-19)
(1.00868 0.00791318 1.48011e-19)
(1.01748 0.00504867 0)
(1.01728 0.00463365 0)
(1.00476 0.0165051 7.42384e-20)
(1.0048 0.0132906 0)
(1.01356 0.0107286 0)
(-0.000611831 1.75447 0)
(0.00118421 1.76128 1.03834e-21)
(0.00177288 1.75243 7.47156e-21)
(-0.000838065 1.78826 0)
(-0.00105465 1.77498 8.95919e-21)
(0.00134583 1.78456 -4.34997e-21)
(0.00142232 1.78953 0)
(0.287232 1.82116 0)
(0.231943 1.79436 -8.68078e-20)
(0.233051 1.77349 0)
(0.241965 1.80304 6.98647e-20)
(0.258256 1.72235 0)
(0.263255 1.76917 -1.33595e-20)
(0.798089 2.21235 -5.80046e-21)
(0.789806 1.533 -3.69013e-19)
(0.865048 1.53515 2.15043e-19)
(0.663313 1.46653 1.03665e-19)
(0.639923 1.74919 0)
(0.639841 1.89264 0)
(0.7575 1.47768 0)
(0.727424 1.37555 -3.73272e-19)
(0.410993 1.88683 -2.04081e-19)
(0.602435 1.73429 -5.96285e-20)
(0.495129 1.96552 4.92134e-20)
(0.471624 1.53711 0)
(0.599931 1.4862 0)
(0.541685 1.50428 -1.28955e-19)
(0.570573 1.67132 0)
(0.628886 0.772029 0)
(0.743289 0.705462 2.55786e-19)
(0.752434 0.692358 1.28005e-20)
(0.455868 0.823711 0)
(0.786209 0.920181 -4.0997e-19)
(0.771871 0.845493 1.93111e-20)
(0.722584 0.889464 0)
(0.712862 0.900797 -3.90182e-20)
(0.656591 0.767366 0)
(0.696186 0.795283 0)
(0.873493 3.00262 9.3004e-20)
(0.91583 3.10305 8.76938e-20)
(0.541807 2.9174 -2.61799e-19)
(0.400775 2.80321 -4.19038e-22)
(0.84799 2.73714 0)
(0.791042 2.7005 8.14395e-23)
(0.832327 2.34812 8.91763e-20)
(0.844484 2.03115 4.5227e-21)
(0.11103 2.27209 0)
(0.0863886 1.54523 1.76274e-19)
(0.117796 1.51839 0)
(0.888692 0.192202 0)
(0.826265 0.184244 0)
(0.790839 0.180385 0)
(0.879882 0.209777 -1.29537e-19)
(0.819845 0.211578 8.16553e-20)
(0.906377 0.0580584 -7.46681e-20)
(0.905337 0.092511 0)
(0.901043 0.0929776 3.3412e-20)
(0.864877 0.0851736 1.37677e-19)
(0.875684 0.0636812 -8.5022e-20)
(1.20081 3.48636 -3.61416e-19)
(1.23572 3.44437 0)
(1.19632 3.45825 -6.61734e-19)
(0.704912 3.58056 6.40362e-19)
(0.96874 3.03233 1.06434e-19)
(0.660776 0.952792 1.24556e-19)
(0.714285 0.81299 0)
(0.426647 0.629938 -4.05122e-20)
(0.512708 0.730542 1.67765e-19)
(0.475011 0.627176 -5.11387e-20)
(0.484176 0.580921 6.19832e-20)
(0.603399 0.522174 1.23106e-19)
(0.654264 0.51448 0)
(0.603882 0.641058 0)
(0.54312 0.604241 0)
(0.961286 0.559545 -1.95299e-20)
(0.819247 0.511784 -7.69768e-20)
(0.841724 0.541566 3.7886e-20)
(0.861452 0.508047 -5.72727e-20)
(1.00584 0.47561 0)
(0.994342 0.541954 -3.36443e-21)
(0.786225 0.381213 -1.72474e-19)
(0.792828 0.376924 -1.93478e-19)
(0.765243 0.367147 1.34492e-19)
(0.755899 0.352329 -1.48685e-19)
(0.80721 0.319974 -1.11365e-19)
(0.76106 0.317992 1.37176e-19)
(1.01427 0.00207045 -7.71662e-20)
(1.01686 0.000642455 1.59409e-19)
(1.01045 0.00590672 9.79789e-20)
(1.00983 0.00595217 -1.18382e-19)
(1.00323 0.0150802 0)
(1.0108 0.00701154 -1.88415e-19)
(0.0444629 1.78649 1.28257e-20)
(0.0363819 1.78616 0)
(0.0790275 1.77513 9.61612e-20)
(0.0875871 1.78957 -8.60741e-20)
(0.0817644 1.79207 2.94178e-20)
(0.0652879 1.7888 0)
(-0.00921462 1.76225 0)
(-0.00524961 1.77205 -4.985e-21)
(-0.00413361 1.77881 4.51638e-21)
(-0.0020151 1.77282 1.42783e-21)
(-0.00515674 1.75927 -9.05328e-21)
(-0.00589855 1.76228 5.16028e-21)
(0.146611 2.06134 -1.5897e-19)
(0.17187 1.99173 1.66855e-19)
(0.200573 1.7942 -2.84497e-20)
(0.232685 1.93155 7.19126e-21)
(0.278806 1.35256 0)
(0.266865 1.62158 7.65688e-20)
(0.269429 1.4871 -7.4089e-20)
(0.129286 1.73081 2.73846e-20)
(0.089231 1.70689 0)
(0.0986927 1.56217 0)
(0.403623 1.77057 3.11077e-19)
(0.443418 1.59965 5.31667e-19)
(0.51855 1.66092 -3.61394e-19)
(0.38486 1.61937 -6.62745e-20)
(0.332517 1.69968 1.10859e-19)
(0.281329 1.62718 -2.75331e-19)
(0.833663 1.7356 -1.18558e-19)
(0.854919 1.97069 0)
(0.875421 1.72509 2.96537e-20)
(0.803088 2.463 0)
(0.793829 2.36866 0)
(0.915771 2.18316 1.25052e-19)
(1.09634 3.2233 2.48893e-19)
(0.958914 2.9975 -1.67943e-19)
(0.316006 0.993284 0)
(0.463718 0.94546 -9.16357e-20)
(0.720645 0.874866 -2.74592e-20)
(0.612843 1.88494 0)
(0.522516 2.69766 -7.50076e-20)
(0.475051 2.48553 0)
(0.692965 0.672899 -1.10771e-19)
(0.761188 0.668573 1.4634e-19)
(0.771079 0.587662 -1.41491e-19)
(0.639188 0.630035 -1.86124e-20)
(0.667574 0.597761 -7.85679e-20)
(1.08917 2.87683 -1.82832e-19)
(1.03903 3.02476 2.46369e-19)
(0.906076 2.29693 -1.77092e-19)
(1.00238 1.9063 1.19632e-19)
(0.84276 2.46643 5.18506e-19)
(1.04632 2.70241 5.50047e-20)
(0.838195 2.90919 -2.84213e-19)
(0.982783 2.07287 -1.88893e-20)
(0.838057 1.95512 -2.62384e-19)
)
;

boundaryField
{
    wall-4
    {
        type            noSlip;
    }
    velocity-inlet-5
    {
        type            fixedValue;
        value           uniform (1 0 0);
    }
    velocity-inlet-6
    {
        type            fixedValue;
        value           uniform (0 3 0);
    }
    pressure-outlet-7
    {
        type            zeroGradient;
    }
    wall-8
    {
        type            noSlip;
    }
    frontAndBackPlanes
    {
        type            empty;
    }
}


// ************************************************************************* //
