/*--------------------------------*- C++ -*----------------------------------*\
| =========                 |                                                 |
| \\      /  F ield         | OpenFOAM: The Open Source CFD Toolbox           |
|  \\    /   O peration     | Version:  4.0                                   |
|   \\  /    A nd           | Web:      www.OpenFOAM.org                      |
|    \\/     M anipulation  |                                                 |
\*---------------------------------------------------------------------------*/
FoamFile
{
    version     2.0;
    format      ascii;
    class       volScalarField;
    location    "54";
    object      p;
}
// * * * * * * * * * * * * * * * * * * * * * * * * * * * * * * * * * * * * * //

dimensions      [0 2 -2 0 0 0 0];

internalField   nonuniform List<scalar> 
918
(
0.558026
1.19049
0.00133098
0.557434
-0.0119388
1.15752
-0.504689
0.687135
0.538207
-0.104264
-0.0383605
0.53661
1.01802
0.783978
-1.12372
-0.00592084
0.654096
-0.383041
0.537288
-0.0492038
0.712933
0.544762
0.547789
0.538371
0.604332
0.760572
0.898872
0.0215164
0.00846817
0.00452719
-0.0117428
-0.0387104
-0.0324095
1.04118
1.09225
1.11493
0.506141
0.333646
-0.370793
-0.440562
-0.433148
-0.542987
0.682389
0.680696
-0.19991
0.689939
0.693609
0.525287
0.537574
0.53848
0.539522
0.538495
0.53988
0.407711
-0.107541
-0.139885
-0.0843739
-0.0755243
0.0603534
-0.0388685
-0.0415642
-0.0366467
-0.0365421
0.455694
0.531252
0.528208
0.54189
0.55193
1.13004
1.10197
1.12811
1.04169
1.05824
0.996031
0.968667
0.804801
0.826326
0.768555
0.757102
-1.55736
-2.51222
-0.532057
-0.280546
-0.0103781
-0.0036127
0.00273243
0.650036
0.650397
0.654191
0.658753
1.08223
-0.38129
-0.478666
0.537426
0.536231
0.544572
0.545271
0.541288
0.54038
-0.0389928
-0.0351944
-0.0445287
-0.0463496
-0.0460782
0.702039
0.701618
0.538903
0.535912
0.55884
0.579895
0.572106
0.281219
0.610353
0.624603
0.590008
0.754
0.746638
0.756103
0.872412
0.835651
0.936175
0.959365
0.0169352
0.000670993
-0.0113691
-0.0179932
-0.0157079
0.502001
0.494594
0.521648
0.509551
0.512037
0.249793
0.115663
0.419118
0.444341
-0.288159
-0.351504
-0.428519
-0.457757
-0.567086
0.612267
0.674817
0.671706
-0.213299
-0.140479
-0.272094
-0.0668012
-0.128596
0.515595
0.522575
0.517591
0.533098
0.527575
0.529534
0.541831
0.538906
0.540464
0.470087
0.593813
0.333925
0.299065
-0.244625
-0.157531
-0.24551
-0.0630461
-0.0587181
0.0740633
0.0993277
0.0474457
0.0358353
-0.0523626
-0.044662
-0.0481027
-0.0347252
-0.0332376
0.448519
0.43742
0.468318
0.475822
0.52013
0.521462
0.525323
0.52356
0.919539
0.941799
0.949371
0.923261
-3.50547
-6.29391
0.0455979
0.182629
-0.00555257
-0.00812692
0.00263521
-0.0050269
0.0011735
-0.00165173
-3.6592e-06
-0.001494
0.00272475
0.00489974
0.643191
0.643859
1.00294
1.00772
0.980569
0.932617
0.525599
0.527684
0.533201
0.529074
-0.0334104
-0.0339501
-0.0333761
0.695692
0.699964
0.698552
0.243217
0.154412
0.331742
0.360514
0.636587
0.625321
0.635211
0.649888
0.685883
0.966732
0.984928
0.98323
0.991635
1.03575
1.05223
1.01744
0.481598
0.491498
0.48649
0.524782
0.522536
0.523448
0.519188
0.520545
0.518458
-0.0353849
-0.416666
0.493071
0.510977
0.494005
0.498088
0.691982
0.769763
0.659733
0.666494
0.664487
0.00164163
-0.0566248
0.254933
0.22152
0.388529
0.4247
0.403783
0.890581
0.851256
0.901249
0.874635
0.836087
0.861675
-0.368293
-1.87225
-0.988963
0.532884
0.346813
0.433852
0.0177071
0.000609456
0.00523108
1.00113
1.07546
0.649685
0.822825
0.826859
0.723748
0.754102
0.808653
0.734813
0.769168
0.803747
0.785442
0.568868
0.506469
0.521549
0.838823
0.894462
0.1253
0.0654597
0.0213907
0.117814
0.174606
0.148883
1.03652
0.948761
1.01937
0.535669
0.536382
-0.00186137
-0.0153835
0.540593
0.540644
-0.00996568
0.00168276
0.417569
-0.832163
0.10748
0.529145
0.519152
0.536222
-0.0872046
0.359795
-0.0390582
0.0548164
-0.00050508
0.533461
0.46668
0.426208
0.00538052
-0.0149212
-0.0412341
-0.214693
0.53334
0.531646
0.535689
0.536643
0.537316
-0.0136573
-0.00978951
-0.00711971
-0.0391479
-0.0348885
-0.0445731
0.500319
0.518981
-0.167474
0.535829
0.537959
0.537779
0.531017
0.536657
0.534902
-0.00505649
-0.0116488
-0.0134711
0.224849
0.353924
0.658603
0.746879
0.629918
0.404854
0.168988
0.560979
0.624847
0.529929
0.684157
0.671199
0.68619
0.172741
0.0225362
0.181695
0.122851
0.527003
0.525699
0.517408
0.514402
0.531084
0.52919
0.533754
0.53076
0.533711
0.535101
-0.0451367
-0.0692158
-0.0825248
-0.150628
0.31455
0.576457
0.257014
0.287519
0.147612
-0.0341488
-0.0345382
-0.038214
-0.0453078
0.00865418
-0.0152502
0.0499088
0.050666
0.0232129
-0.00351109
0.000830305
-0.0100313
-0.00679438
0.526437
0.524869
0.531141
0.54042
0.476256
0.480027
0.445179
0.465726
0.451079
0.390275
0.425421
0.400598
-0.00100146
0.00919579
0.00146371
-0.011598
-0.00808938
-0.0258112
-0.0232872
-0.0191909
-0.0150448
-0.022298
-0.0362064
-0.0357675
-0.172462
-0.287662
0.989679
0.913935
0.133756
0.522506
0.528946
0.525718
0.5306
0.533728
0.534541
0.532263
0.528818
0.51936
0.520926
0.517686
0.5185
-0.0998798
-0.240852
-0.0684709
-0.140609
0.144614
0.628175
0.365866
0.302738
0.297627
0.524792
0.924191
0.710177
0.685337
0.697818
-0.34114
0.0505903
-0.276485
0.341086
0.16594
0.657119
0.706719
0.729234
0.676531
0.629276
-0.103818
0.555966
-0.0658549
-0.0154293
0.184467
0.064418
0.682222
0.655919
0.659092
0.676321
0.692782
0.662191
0.646281
0.641083
0.672688
0.675561
0.492447
0.255938
0.207443
0.168987
0.644254
0.528274
0.582004
0.497946
0.522152
0.524789
0.523413
0.505123
0.512666
0.508224
0.514641
0.518086
0.526796
0.527238
0.522553
0.524692
-0.0497235
-0.0531014
-0.0267771
-0.136277
-0.12806
-0.190208
-0.0620366
0.0764035
0.0377599
0.236608
0.342334
0.053547
-0.0577986
-0.0306269
0.0101727
0.180489
0.206582
0.079053
0.167468
0.156443
0.139586
0.241087
0.245507
-0.0193045
-0.0234501
-0.0259812
-0.0278372
0.0260247
0.0959668
0.105891
0.00361
-0.00246399
-0.03168
-0.0314754
-0.0166661
-0.0208529
-0.0173564
0.0166066
-0.044549
-0.0125851
0.0024367
0.00684057
0.00390958
-0.00158443
0.518639
0.521032
0.520614
0.52726
0.545725
0.561357
0.518503
0.498328
0.489175
0.492172
0.465236
0.475508
0.471196
0.48492
0.506031
0.515537
0.512785
0.515568
0.498175
0.499846
0.486338
0.490057
0.464988
0.446094
0.434244
-0.0343953
0.00384262
-0.00403644
-0.0310092
-0.00182299
-0.014174
-0.0028054
0.0169761
0.000596718
-0.00214442
-0.0128832
-0.0180099
-0.0173273
-0.0737828
0.0119503
-0.18242
-0.21965
-0.290919
0.891368
1.01536
0.812244
0.585428
0.603888
0.847144
0.932127
0.546813
0.737393
0.761205
0.587322
0.853375
0.527329
0.526933
0.524536
0.524013
0.525231
-0.00623075
0.0987312
0.0992574
0.160685
0.276638
0.38899
0.318122
0.193092
0.323857
0.326727
0.620457
0.632857
0.588426
0.6126
0.612509
0.428081
0.504051
0.556251
0.513748
0.566053
0.586983
0.542524
0.574833
0.525021
0.479596
0.475555
0.426474
0.446075
0.422509
0.405429
0.517213
0.494468
0.505054
0.495263
0.5146
0.539902
0.535784
0.566003
0.577784
0.498758
0.454707
0.463961
0.494364
0.455296
0.470301
0.486545
0.23185
0.13321
0.215666
-0.0721556
0.00198206
-0.0117524
-0.0597637
-0.0101546
0.274784
-0.418706
-0.394576
-1.02365
0.501327
0.957473
0.627485
0.600349
0.689791
0.671796
0.676487
0.693085
0.697102
0.633516
0.648006
0.65074
0.613707
0.636339
0.655687
0.652889
0.526077
0.389395
0.386468
0.337047
0.207237
0.245738
0.445589
0.368205
0.29292
0.293807
0.461296
0.348452
0.417364
0.452872
0.384216
0.338358
0.541622
0.606628
0.598797
0.573314
0.488638
0.502093
0.526095
0.560834
0.586657
0.617374
0.51414
0.520027
0.521267
0.518757
0.516015
0.519039
0.519254
0.521793
0.522481
0.525457
0.524491
-0.0398306
-0.0276925
-0.0407828
-0.0488969
-0.0165369
-0.0199778
0.0230789
0.00921843
-0.00656894
-0.000611426
-0.0266421
-0.0309845
-0.0260729
-0.0170417
0.102103
0.114553
0.0979675
0.0585229
0.250223
0.38049
0.454319
0.32979
0.222518
0.245928
0.266553
-0.00745381
0.0199407
0.00686176
0.0457867
0.0373347
-0.026436
-0.0300302
-0.027611
-0.0208995
-0.0117026
-0.0273556
-0.0291829
-0.0212727
-0.0255505
-0.0269097
-0.0293701
0.500577
0.49408
0.495791
0.489635
0.48835
0.502646
0.506869
0.50885
0.514309
0.516608
0.5067
0.512483
0.516278
-0.00226891
-0.0252784
-0.0290774
-0.0178823
-0.0205776
-0.0190117
-0.0212511
0.122877
0.051285
0.0559359
0.00924703
-0.121615
-0.0639181
0.491168
0.490736
0.481656
0.72068
0.57009
0.490731
0.588084
0.693499
0.27493
0.472667
0.306972
0.888498
0.784181
0.930617
0.542228
0.244022
0.404611
0.450825
0.262209
0.335995
0.328019
0.216141
0.247426
0.283443
0.383466
0.265097
0.24129
-0.001147
0.188753
0.301544
0.283322
0.408875
0.470414
0.265086
0.185674
0.140059
0.606116
0.625264
0.640226
0.612404
0.633565
0.578033
0.567701
0.585574
0.594841
0.589774
-0.751542
-0.4582
-1.40411
-0.723828
-0.270486
0.531709
0.500263
0.767404
0.649144
0.694907
0.680265
0.639298
0.60752
0.627975
0.653799
0.349844
0.46125
0.436397
0.441446
0.343047
0.274287
0.572999
0.568287
0.601993
0.625629
0.596447
0.626785
0.511953
0.511651
0.511159
0.507435
0.505704
0.50803
0.0619818
0.0308341
0.0666792
0.04728
0.0242135
0.0126151
0.00155244
-0.00788105
-0.0151801
-0.0156149
-0.00272027
0.00109801
0.170012
0.108838
0.0285327
0.0586189
-0.00193627
-0.071129
-0.088829
0.0138932
0.109555
0.0999979
0.404699
0.655104
0.475045
0.642413
0.484125
0.539948
0.470532
0.462166
0.48814
0.380016
0.460176
0.240875
-0.265879
-0.174791
0.789579
0.802775
0.581906
0.403109
0.171869
0.35363
0.546373
0.478742
0.515465
0.584376
0.573062
0.0222864
0.0832864
0.360653
0.587976
0.238375
0.229374
0.223378
0.404097
0.324386
)
;

boundaryField
{
    wall-4
    {
        type            zeroGradient;
    }
    velocity-inlet-5
    {
        type            zeroGradient;
    }
    velocity-inlet-6
    {
        type            zeroGradient;
    }
    pressure-outlet-7
    {
        type            fixedValue;
        value           uniform 0;
    }
    wall-8
    {
        type            zeroGradient;
    }
    frontAndBackPlanes
    {
        type            empty;
    }
}


// ************************************************************************* //
