/*--------------------------------*- C++ -*----------------------------------*\
| =========                 |                                                 |
| \\      /  F ield         | OpenFOAM: The Open Source CFD Toolbox           |
|  \\    /   O peration     | Version:  4.0                                   |
|   \\  /    A nd           | Web:      www.OpenFOAM.org                      |
|    \\/     M anipulation  |                                                 |
\*---------------------------------------------------------------------------*/
FoamFile
{
    version     2.0;
    format      ascii;
    class       volVectorField;
    location    "54";
    object      U;
}
// * * * * * * * * * * * * * * * * * * * * * * * * * * * * * * * * * * * * * //

dimensions      [0 1 -1 0 0 0 0];

internalField   nonuniform List<vector> 
918
(
(0.985162 -0.000504988 0)
(0.00501498 2.96625 0)
(0.00886848 0.881739 0)
(0.979703 0.00214701 0)
(-0.0101682 2.06816 3.69519e-20)
(-0.00704865 2.9488 -2.47805e-18)
(0.813202 1.15457 4.44081e-19)
(0.186172 0.0953615 -1.52798e-20)
(0.999908 -0.000279443 0)
(0.0602446 0.762933 0)
(0.00992894 0.562796 0)
(0.735044 -0.0185518 0)
(0.011121 2.93038 0)
(0.00247027 2.79519 0)
(-0.017749 3.15097 7.79117e-19)
(-0.0209837 1.90951 4.48689e-21)
(0.282182 0.0372573 1.02188e-18)
(0.185124 1.1418 3.18223e-19)
(0.962743 0.00501992 0)
(0.00781165 0.507518 0)
(0.0104422 0.126506 -7.17267e-19)
(1.00198 -0.00497742 0)
(1.00022 -0.00978779 0)
(0.975733 -0.00643927 0)
(0.590564 -0.0128544 0)
(0.015406 2.64103 0)
(-0.0149205 2.91004 9.12228e-19)
(0.011517 0.937327 0)
(-0.0119529 1.1798 0)
(0.0131744 0.918286 0)
(-0.0102439 2.59994 0)
(0.00122561 2.12056 -2.95136e-20)
(-0.00943065 1.8965 0)
(-0.020601 2.98761 -8.9101e-23)
(-0.0166844 3.00529 1.92579e-18)
(0.0020981 3.00017 0)
(0.871121 -0.00960629 0)
(0.404007 0.935618 1.80205e-19)
(0.798559 1.16897 -5.05492e-19)
(0.948856 1.01584 5.46866e-19)
(0.667641 1.25996 -1.03074e-19)
(0.668992 1.23368 5.93284e-19)
(0.222009 0.157227 1.49067e-20)
(0.199183 0.069866 0)
(1.14981 0.558406 0)
(0.192957 0.14774 6.79347e-20)
(0.159777 0.0931354 -7.04922e-20)
(0.919855 -0.00745217 0)
(1.00027 0.000157091 0)
(0.999909 0.000335958 0)
(1.00363 -0.00776441 0)
(1.00096 -0.000921671 0)
(1.00017 3.42982e-05 0)
(0.0743454 1.82149 -7.79591e-19)
(0.0274893 0.966666 0)
(0.0944477 0.832147 0)
(0.0120051 0.921493 0)
(0.0354666 0.695312 0)
(0.00709947 2.00541 0)
(0.000862555 0.819873 0)
(0.0118508 0.57819 0)
(-0.00163011 0.814112 0)
(0.00838532 0.547685 0)
(0.840593 -0.0158273 0)
(0.842429 0.0310131 0)
(0.76758 -0.00738398 0)
(0.808618 0.0412921 0)
(0.704933 -0.0192708 0)
(0.0146826 3.00041 9.18678e-19)
(0.0114848 3.00808 0)
(0.00610341 3.00274 0)
(0.013539 2.99737 1.04234e-23)
(0.00796112 2.95847 -1.36538e-18)
(0.0145026 2.98203 0)
(0.0108883 2.90354 0)
(0.0242144 2.93081 2.09334e-24)
(0.00471984 2.82519 0)
(0.0304481 2.9166 0)
(-0.00468076 2.74526 0)
(0.306359 3.54535 0)
(-0.131663 3.62629 0)
(0.138417 3.24122 -7.25045e-19)
(-0.0133925 2.97867 0)
(-0.0196125 1.98203 0)
(-0.00524627 2.16619 -4.42545e-21)
(-0.0147736 1.91618 -2.49246e-21)
(0.374016 0.144968 -3.54561e-19)
(0.305987 0.0236065 -3.43794e-19)
(0.338145 0.154748 -1.06263e-18)
(0.252176 0.0440787 -6.94339e-19)
(0.227308 0.975818 0)
(0.267979 1.28749 -3.68492e-19)
(0.36088 1.21918 6.13839e-19)
(0.98745 0.00856377 0)
(0.941887 0.00583243 0)
(1.0003 0.000579582 0)
(1.00286 0.00930765 0)
(1.00302 0.00846751 -2.74912e-18)
(0.99191 0.00969702 2.07604e-18)
(-0.0029377 0.805645 0)
(0.00866782 0.522703 0)
(-0.0377977 1.00613 0)
(-0.0211767 0.84139 0)
(0.00282821 0.503699 0)
(0.024435 0.133644 2.21502e-19)
(0.0973864 0.105575 0)
(0.993548 -0.00837544 0)
(0.954447 -0.00652571 0)
(0.752376 0.0469579 0)
(0.68733 0.0485005 0)
(0.66399 -0.0253708 0)
(0.967756 -0.00788647 0)
(0.598226 0.0700482 0)
(0.443977 -0.0133017 1.54135e-18)
(-0.0372664 2.86174 6.75905e-19)
(0.0410556 2.90985 0)
(0.0536865 2.88607 0)
(-0.00443984 2.70044 0)
(-0.0130819 2.98525 8.63741e-19)
(-0.0178475 2.8951 0)
(-0.0153809 2.98805 -2.67818e-18)
(-0.0132815 2.9252 9.16917e-19)
(-0.0189059 1.34661 0)
(0.00405348 1.37509 0)
(-0.00539277 2.13258 3.70936e-22)
(-0.00426036 2.09699 0)
(-0.0226676 1.90025 0)
(0.938385 -0.00747435 0)
(0.857114 -0.00992246 0)
(0.863323 0.00589359 0)
(0.949455 -0.00788479 0)
(0.883915 -0.00816709 0)
(0.515673 1.12876 -2.27614e-19)
(0.564793 1.17979 0)
(0.368568 0.880638 3.36832e-20)
(0.310968 0.7395 0)
(0.910357 1.05292 -1.50661e-19)
(1.02722 0.86367 3.04163e-19)
(0.35352 1.34476 0)
(0.521249 1.31448 0)
(0.544961 1.25353 0)
(0.119787 0.185251 -3.02308e-19)
(0.249104 0.150469 0)
(0.221523 0.073874 1.95243e-19)
(0.998236 0.917969 0)
(1.07116 0.772729 0)
(1.09626 0.714304 -2.38948e-19)
(1.12924 0.6178 0)
(1.17992 0.402462 5.65064e-20)
(0.957674 -0.00874984 0)
(0.962467 -0.0100616 0)
(0.901667 -0.00797438 0)
(0.984192 -0.00915773 0)
(0.974688 -0.00935277 0)
(0.937108 -0.00636809 0)
(1.00019 0.00233809 0)
(1.0009 0.00140939 0)
(0.99991 0.000853908 0)
(0.0351675 2.07241 4.31789e-19)
(0.119498 1.76462 0)
(0.0174978 2.18674 6.65316e-19)
(0.0469255 1.87512 -5.56521e-19)
(0.100489 1.15093 -2.60634e-19)
(0.0432154 1.04039 0)
(0.14001 0.986101 0)
(0.00645759 0.88033 0)
(0.0169766 0.643432 0)
(-0.0013155 2.23815 -9.18445e-22)
(0.0164503 2.01021 0)
(-0.00195712 2.23939 -3.62736e-20)
(0.00850989 2.01367 5.94469e-20)
(0.00292146 0.855513 0)
(0.00112946 0.835495 0)
(0.0112731 0.60342 0)
(-0.00619298 0.814556 0)
(0.00694943 0.533323 0)
(0.937464 0.00956634 0)
(0.848848 -0.0149068 0)
(0.926906 0.000233734 0)
(0.841791 -0.0129545 0)
(0.812086 -0.000687789 0)
(0.899954 0.0211605 0)
(0.874727 0.0259355 0)
(0.78877 -0.00350479 0)
(0.00559319 3.06474 -8.56928e-21)
(0.0167105 3.05781 0)
(0.0146686 2.96902 0)
(0.00862146 2.87617 0)
(0.922501 3.95935 0)
(1.23628 3.29272 9.28899e-19)
(0.06929 3.07091 0)
(-0.0290665 2.90343 0)
(-0.00324995 1.39549 0)
(-0.0258874 1.68988 0)
(-0.0111354 1.52748 0)
(-0.0263467 2.5567 -6.74312e-21)
(-0.00831941 2.23984 0)
(-0.0148397 2.39202 0)
(-0.000277058 1.9399 9.22367e-22)
(-0.00248261 2.23573 -5.68519e-22)
(-0.00421282 2.19904 2.39849e-21)
(-0.00845097 1.92613 0)
(0.420185 0.127468 5.39875e-19)
(0.353538 0.0129701 -5.29842e-19)
(0.259398 1.58416 0)
(0.27539 0.749344 -3.15367e-19)
(0.176988 1.67069 -1.05107e-18)
(0.226236 1.21411 1.05344e-18)
(0.902093 0.00640901 0)
(0.967435 0.0110988 0)
(0.974567 0.010797 0)
(0.92335 0.00642764 0)
(-0.00122238 0.811381 0)
(-0.000424254 0.806913 0)
(-0.00156919 0.526987 0)
(0.166156 0.137819 6.27608e-19)
(0.138426 0.125658 -7.40306e-19)
(0.131463 0.0957674 0)
(1.09439 0.0849894 2.74516e-20)
(1.07657 0.0387354 0)
(1.01009 0.0393954 0)
(0.904851 -0.00607326 0)
(0.467021 0.107166 0)
(0.522611 0.0879319 -2.46291e-18)
(0.396588 0.00809431 9.21046e-19)
(0.00875009 2.98063 7.24468e-19)
(-0.0330499 2.86526 4.6362e-20)
(0.00363407 3.05022 -1.81394e-20)
(0.0202235 3.04338 6.45537e-19)
(-0.0150091 2.99658 3.01089e-20)
(-0.01296 2.9495 -1.21139e-22)
(-0.0172585 3.01192 -5.57142e-19)
(0.014884 3.02373 4.03143e-19)
(0.00738776 3.03681 -6.38766e-19)
(0.933537 -0.00136627 0)
(0.939161 -0.00332632 0)
(0.845456 -0.0094655 0)
(0.956596 0.0118529 0)
(0.942787 0.0131532 0)
(0.881649 0.00593724 0)
(0.917225 0.0171005 0)
(0.926069 0.0149555 0)
(0.838553 0.00264932 0)
(0.718197 1.4062 4.14005e-20)
(0.75148 1.51497 0)
(0.184344 0.319594 7.09824e-20)
(0.225808 0.667317 5.72391e-19)
(0.262357 0.721626 -3.33751e-19)
(0.264969 0.527463 6.63583e-19)
(0.343334 0.807091 1.59036e-18)
(0.138789 0.228827 3.74802e-19)
(0.304691 0.157897 7.36087e-19)
(0.276346 0.156446 1.91602e-19)
(0.23363 0.0593152 3.64102e-19)
(1.1692 0.460414 5.52398e-20)
(1.18598 0.254451 5.06393e-20)
(0.00962062 2.23449 2.57505e-19)
(0.0410681 1.94196 0)
(0.968724 0.0289843 0)
(0.941895 0.0136816 0)
(0.867303 -0.0181029 0)
(0.0112568 3.07434 0)
(0.0196361 2.94399 1.1816e-18)
(0.0164363 2.9563 0)
(0.00638017 2.85063 -1.1722e-18)
(0.00624383 3.09079 2.86682e-19)
(0.00726391 3.08263 0)
(0.784355 1.81684 -1.5978e-19)
(1.24414 2.49317 4.06905e-19)
(0.766397 1.95627 -1.23428e-18)
(0.0198558 2.98063 -6.24904e-19)
(0.0354389 3 0)
(-0.0341899 2.87733 0)
(-0.00380358 2.21855 -1.3145e-20)
(-0.00249005 2.23999 -2.79598e-21)
(0.00219468 1.97498 -7.37444e-21)
(0.277448 1.39239 1.02531e-18)
(0.235281 0.5413 -7.03205e-19)
(0.0634768 1.99714 7.66605e-19)
(0.135538 1.88398 -9.13564e-19)
(0.180258 1.50652 9.40809e-20)
(0.00176388 3.11883 -1.788e-18)
(0.0159387 3.11808 1.91889e-18)
(-0.009076 2.98114 7.9368e-19)
(-0.00367528 2.97745 -7.5018e-19)
(-0.0210234 2.88118 -8.08343e-19)
(0.00863863 3.09986 -2.132e-18)
(0.00234574 3.10606 2.08368e-18)
(0.280334 0.694041 0)
(0.247169 0.683484 -1.18693e-18)
(0.0962008 0.225733 5.27009e-19)
(0.355582 0.933209 1.11113e-18)
(0.193862 0.274015 -1.71312e-18)
(1.17921 0.173316 6.52175e-20)
(1.18648 0.308881 0)
(1.16752 0.121491 -9.4924e-21)
(0.000964511 2.25077 -1.55931e-21)
(0.00422577 2.24333 0)
(0.025297 1.97706 0)
(0.340076 1.30143 -3.68534e-19)
(0.372943 1.14462 -7.99695e-19)
(0.208216 0.374365 1.42512e-18)
(1.00588 -0.0108409 0)
(1.00767 -0.0076413 5.07216e-19)
(-0.0154511 1.32627 0)
(-0.0302442 1.32231 0)
(1.00222 0.00350727 1.80725e-21)
(1.00366 0.00945854 1.03549e-18)
(-0.0146256 2.54026 8.54421e-21)
(-0.0206713 2.58353 0)
(0.0348406 3.17746 4.14379e-19)
(0.392367 3.48625 0)
(1.1688 0.658528 -6.09711e-20)
(1.01288 0.0131155 -2.14181e-21)
(1.0213 -0.0103327 0)
(1.0017 0.000119352 7.49342e-23)
(0.10306 1.3609 0)
(0.143945 2.57504 0)
(0.0242331 1.30437 0)
(-0.00156271 2.62495 3.41471e-20)
(-0.0226059 2.58095 9.6598e-21)
(0.999697 0.029334 2.4625e-21)
(1.0626 0.00430069 0)
(1.09647 0.0243637 0)
(-0.0247099 1.73352 0)
(-0.0171757 2.5821 0)
(-0.00129905 1.3079 0)
(0.304007 1.47515 -1.69489e-19)
(1.01129 -0.00963069 0)
(1.0094 -0.0149206 0)
(1.00236 0.000738237 6.4809e-19)
(1.00547 -0.00481185 -7.61844e-19)
(1.00118 -0.000978489 0)
(-0.0106915 1.45994 0)
(-0.00333037 1.3726 0)
(-0.00294567 1.41831 0)
(-0.00565263 1.29618 0)
(-0.0112452 1.28375 0)
(-0.0019123 1.26525 0)
(1.03487 -0.00617865 0)
(1.02 0.0156294 -8.65427e-22)
(0.819708 1.26748 2.56745e-19)
(1.00224 0.00030151 -6.45964e-19)
(1.00406 0.00525169 7.55901e-19)
(1.00118 0.00206844 0)
(1.01276 0.0103341 6.42556e-19)
(1.008 0.00830297 -7.78532e-19)
(1.00857 0.0146914 0)
(-0.0214649 2.61043 0)
(-0.0227581 2.59052 -1.39898e-20)
(-0.0205917 2.60451 1.00397e-20)
(1.23382 0.264647 5.91025e-19)
(1.16016 0.0858706 0)
(0.0412901 3.07749 -9.24318e-19)
(0.0648485 2.85545 -6.72468e-20)
(0.139393 3.19213 1.41478e-18)
(0.134626 3.22038 -2.0129e-19)
(0.133359 3.23161 0)
(0.0199865 3.13741 2.38564e-19)
(0.0752293 3.16006 9.11561e-19)
(0.067915 3.18546 -4.49628e-19)
(0.0223784 3.12986 0)
(0.607727 0.276928 0)
(0.531062 0.311465 0)
(1.13941 0.694941 1.41584e-19)
(1.13442 0.816037 -1.28723e-19)
(1.19623 0.581071 0)
(1.22487 0.515843 0)
(1.01609 0.0133446 -1.19777e-18)
(1.01499 0.0142691 1.50348e-18)
(1.02531 -0.00985667 0)
(1.02338 -0.0118875 0)
(1.00642 0.0025957 0)
(1.01042 0.00371712 0)
(1.00459 0.00185109 0)
(1.0098 0.00621834 0)
(1.00783 0.00596032 0)
(1.00451 0.0046927 0)
(0.092136 1.35849 0)
(0.0866365 1.32691 0)
(0.123832 1.39591 0)
(0.138911 1.40342 0)
(0.145195 2.6 0)
(0.185493 2.66922 -4.2654e-19)
(0.100806 2.6558 0)
(0.0845709 2.65813 2.00853e-19)
(0.0376709 2.67991 -1.55863e-19)
(0.0183222 1.31865 0)
(0.0209626 1.24459 0)
(0.0199252 1.32722 0)
(0.035268 1.26937 0)
(0.00136964 1.98324 -3.14597e-21)
(-0.0212787 2.60889 -1.12639e-20)
(-0.00986962 2.66645 2.1146e-20)
(-0.0195787 2.68445 0)
(-0.0238187 2.61443 -2.00885e-20)
(-0.0241414 2.60919 3.93503e-21)
(0.0102624 1.98184 4.90481e-21)
(-0.00831789 2.39719 1.51127e-20)
(-0.0145825 2.41918 -2.39817e-20)
(1.01003 0.037654 1.22336e-18)
(1.00529 0.0160594 -1.51138e-18)
(1.00124 0.0451666 -1.22579e-18)
(0.977031 0.0233214 1.56236e-18)
(1.06383 0.00810846 0)
(1.04906 -0.00841172 0)
(1.09367 0.0343551 0)
(1.07381 0.0125285 0)
(1.07159 0.000275603 0)
(1.13951 0.0821245 0)
(1.11086 0.0438629 0)
(1.11431 0.0318203 0)
(-0.0211741 2.43016 2.37624e-22)
(-0.0106126 2.00512 0)
(-0.0117241 2.21163 0)
(-0.018928 2.60289 -7.15085e-21)
(-0.0168259 2.61276 5.39792e-23)
(0.0045182 1.56918 -2.81652e-20)
(-0.0026912 1.49852 2.8681e-20)
(-0.0123235 1.38786 0)
(-0.0154728 1.39496 0)
(-0.019689 1.39011 0)
(-0.00215874 1.30863 0)
(0.00882142 1.23547 0)
(0.383364 1.49179 2.75922e-19)
(0.42584 1.49243 1.45229e-19)
(0.598126 2.44934 -2.40118e-19)
(0.399973 2.54597 7.07204e-19)
(0.351749 2.06087 7.08833e-20)
(1.02103 -0.00815215 0)
(1.01549 -0.00976649 0)
(1.01491 -0.0155087 0)
(1.0074 -0.00111356 0)
(1.00493 -0.000926149 0)
(1.00777 -0.00471226 0)
(1.00926 -0.0036496 0)
(1.0142 -0.00441796 0)
(1.02074 0.0162327 1.17308e-18)
(1.0178 0.0156044 -1.50139e-18)
(1.02109 0.0182184 -1.18205e-18)
(1.01884 0.0167354 1.47848e-18)
(0.782595 1.31871 0)
(0.720085 1.36784 2.44044e-19)
(0.893613 1.21975 9.42338e-20)
(0.939731 1.16433 -1.25399e-19)
(1.15621 2.6027 2.77586e-19)
(0.779806 0.119071 6.00371e-19)
(1.16223 0.107368 0)
(1.20999 0.192118 -4.75251e-19)
(1.19673 0.153927 -2.01744e-20)
(1.00563 0.154695 0)
(0.131024 2.959 5.39504e-19)
(0.10783 2.86488 -1.17279e-18)
(0.0172316 2.37525 7.86098e-19)
(0.0913762 -0.104612 -3.43117e-19)
(0.33721 3.41598 -2.13516e-19)
(0.191791 3.30986 0)
(0.235426 3.35087 2.78072e-19)
(0.241184 3.03179 -1.7966e-18)
(0.335319 3.19055 0)
(0.00620739 3.12107 4.64438e-20)
(0.015733 3.12986 -5.4808e-19)
(0.0143898 3.12594 8.06663e-19)
(0.0350925 3.14001 0)
(0.0335811 3.1503 0)
(1.21255 2.60086 0)
(0.542724 0.81369 -5.29683e-19)
(1.06171 0.989216 -3.75718e-21)
(0.996101 1.07435 0)
(0.849688 0.971511 -1.11449e-19)
(1.08558 0.890912 2.82382e-20)
(0.336752 0.355505 -8.84915e-19)
(0.668876 0.315636 -1.85448e-20)
(0.602291 0.219499 4.16531e-19)
(0.556842 0.347103 3.07231e-20)
(0.455652 0.299533 -1.23498e-18)
(0.632801 0.321917 0)
(0.701393 0.420105 7.08837e-19)
(0.709708 0.421323 0)
(0.592611 0.342588 0)
(0.538475 0.254095 0)
(0.813164 0.618588 4.17932e-19)
(1.23464 0.286873 -4.98477e-19)
(1.23439 0.42532 0)
(1.24255 0.365705 0)
(0.712484 0.191998 6.22264e-19)
(0.861896 0.546849 -3.84263e-19)
(0.76048 0.516885 6.81908e-19)
(0.956767 0.437913 -7.48813e-19)
(1.0194 0.0148674 8.0513e-19)
(1.01768 0.014299 -8.1019e-19)
(1.01592 0.0154378 0)
(1.03633 -0.00571651 0)
(1.0298 -0.00844638 -7.58903e-19)
(1.02783 -0.0120235 7.5137e-19)
(1.02491 0.0102776 0)
(1.02346 0.0139769 0)
(1.01142 0.00411825 0)
(1.01423 0.00909711 0)
(1.01514 0.00409173 0)
(1.01425 0.00285135 0)
(0.0618992 1.34262 0)
(0.0669681 1.29654 0)
(0.142951 1.37493 8.93536e-21)
(0.275382 1.47216 8.95584e-20)
(0.167472 1.44311 1.87777e-19)
(0.200018 1.44918 -3.06502e-19)
(0.165087 1.40035 0)
(0.133308 1.59828 -7.22891e-20)
(0.116276 1.57371 0)
(0.349355 2.01233 -1.03059e-19)
(0.344234 2.34593 6.16699e-19)
(0.190408 1.45814 6.30165e-20)
(0.262475 1.39032 2.36749e-20)
(0.198836 1.37922 -1.91913e-20)
(0.275239 1.33468 -1.01127e-19)
(0.242223 1.58106 0)
(0.265495 1.6196 1.10767e-19)
(0.0300779 2.26508 -3.07548e-20)
(0.0426519 2.6697 0)
(0.0654621 2.40202 1.37275e-19)
(0.0617971 2.42281 0)
(0.0688376 2.67176 -2.22545e-19)
(0.04831 2.6996 0)
(0.0262302 1.42227 2.40386e-20)
(0.0331365 1.47363 0)
(0.0286061 1.39048 0)
(0.0237197 1.39442 -2.71236e-20)
(-0.000891744 2.65287 -1.72079e-20)
(0.02855 2.69853 1.75759e-19)
(0.00915608 2.72274 1.24331e-21)
(0.00155903 1.83223 4.01182e-21)
(-0.00424612 1.68436 -1.43754e-22)
(0.0133778 1.29752 0)
(0.0176375 1.22165 0)
(0.0459829 1.58167 -2.01112e-20)
(0.0289584 1.45619 -2.53626e-20)
(0.0357246 1.52068 3.20626e-20)
(0.0386915 1.60579 0)
(-0.0277184 2.26778 7.76633e-20)
(-0.0286032 2.5487 -3.18355e-20)
(-0.0160374 2.44521 1.69627e-21)
(-0.00434604 1.849 -4.86146e-21)
(-0.0254556 2.49877 -9.47708e-22)
(-0.0208639 2.44244 1.21371e-20)
(1.01895 0.0210952 -8.02067e-19)
(1.01482 0.0270757 8.05504e-19)
(1.0139 0.0165073 0)
(1.01199 0.0718487 1.12979e-18)
(0.989504 0.0602334 -1.27341e-18)
(0.946597 0.047279 1.42411e-18)
(1.01437 0.11106 -1.50567e-19)
(1.04269 -0.00572777 0)
(1.05099 -0.00141686 7.23893e-19)
(1.03899 -0.00986066 -7.25358e-19)
(1.07117 0.0422248 -4.30688e-20)
(1.06447 0.0236415 3.71334e-19)
(1.06319 0.056067 0)
(1.05344 0.0496814 -1.33548e-19)
(1.03252 0.0427598 0)
(1.02546 0.0389882 0)
(1.02782 0.0133051 0)
(1.02397 0.0160022 0)
(1.03969 0.0321462 2.75069e-19)
(1.03898 0.0271747 -6.08062e-19)
(1.05103 0.0340359 -2.9149e-19)
(1.04819 0.0340128 -3.2114e-19)
(1.07114 0.0646613 6.26423e-19)
(1.0962 0.052203 0)
(1.1049 0.0959395 0)
(-0.0230618 2.27275 4.44604e-20)
(-0.0207293 2.01429 -1.66506e-22)
(-0.0174538 2.02064 0)
(-0.0242811 2.44341 -4.42634e-20)
(-0.0180585 2.39909 -5.38509e-23)
(-0.0295791 2.47179 3.96386e-21)
(-0.0207748 2.62171 -4.09336e-21)
(-0.0218906 2.56293 -5.7128e-22)
(-0.0212635 2.51433 -4.0127e-22)
(-0.0151429 2.61554 6.13387e-21)
(-0.0207666 2.61752 -5.85405e-21)
(-0.00402301 1.48853 -3.55251e-22)
(0.00550207 1.61753 -2.41198e-20)
(0.367701 1.44282 -1.16608e-19)
(0.368716 1.38001 3.39258e-20)
(0.659912 1.41821 -2.36217e-19)
(0.526314 1.48504 -1.42713e-19)
(0.585427 1.45043 0)
(0.593846 2.42617 2.07011e-19)
(0.661787 2.42058 3.37841e-19)
(0.411556 2.51652 8.71356e-20)
(0.403043 2.54127 -6.11481e-19)
(0.511252 2.48322 6.1242e-19)
(0.553654 2.46313 0)
(0.489031 2.52048 -5.60163e-19)
(0.248512 2.59323 1.15007e-18)
(0.354865 2.56566 -7.8335e-20)
(0.284372 2.65491 -1.5919e-18)
(0.947605 2.37788 7.27682e-19)
(0.838256 2.38345 0)
(1.01105 0.000480059 2.62953e-20)
(1.01532 -0.00542339 -2.13339e-20)
(1.01765 -0.00354641 -3.89664e-19)
(1.015 -0.000898962 3.91713e-19)
(1.01243 0.00118899 0)
(0.646201 1.28687 0)
(0.66977 1.18284 0)
(0.782154 1.09846 0)
(0.662215 1.14533 0)
(1.18597 2.61641 5.97602e-20)
(1.07447 2.36358 0)
(0.836492 2.17115 3.82479e-21)
(0.825481 2.43682 0)
(0.922907 2.52934 -4.21498e-19)
(0.958304 2.4853 2.80419e-19)
(0.805245 0.177402 0)
(0.756479 0.152656 1.62865e-19)
(0.914101 0.149251 9.48351e-19)
(0.828656 0.151224 -3.55655e-19)
(0.788071 0.0863132 -1.09515e-18)
(1.08058 0.237578 -8.97982e-19)
(0.998052 0.297485 -1.64051e-20)
(0.929238 0.300365 8.6605e-19)
(1.00792 0.229288 7.2406e-19)
(0.950234 0.194547 -1.25595e-18)
(0.914065 0.198908 1.56987e-19)
(0.953807 0.262035 -3.33563e-19)
(0.929167 0.22441 0)
(0.993761 0.190909 6.192e-19)
(1.04701 0.191376 0)
(1.04431 0.218897 0)
(1.10622 0.119312 2.91152e-19)
(1.071 0.178372 -1.4742e-20)
(1.07464 0.238065 -1.58343e-19)
(1.10131 0.204454 0)
(1.02303 0.0468797 6.20652e-19)
(1.03981 0.0595747 7.73588e-19)
(1.03384 0.04518 -6.15461e-19)
(1.04272 0.0665481 -5.18461e-19)
(1.01947 0.0743369 -7.94649e-19)
(0.987512 0.161223 0)
(0.997061 0.106194 0)
(0.964672 0.0686818 -5.06552e-19)
(0.909309 0.09393 1.9924e-19)
(1.03942 0.106108 7.16564e-19)
(1.06898 0.122589 -8.39619e-19)
(1.07469 0.155562 7.49478e-19)
(1.02959 0.146273 0)
(1.07451 0.110736 0)
(1.05466 0.0914506 -3.43698e-19)
(1.04358 0.0962598 -5.86008e-19)
(0.581093 1.06407 1.39656e-19)
(0.607626 1.39143 -4.1118e-20)
(1.15584 2.73226 -2.25913e-19)
(1.22167 3.07432 1.34089e-21)
(1.24786 2.71529 -1.22509e-19)
(1.27672 2.69886 -3.3299e-20)
(1.2046 2.33945 -1.08285e-20)
(1.20927 2.97822 -9.15881e-20)
(1.22925 2.94357 2.31854e-19)
(1.21205 3.22746 -1.44163e-19)
(1.37213 2.95881 1.9926e-19)
(1.36146 2.87701 0)
(0.555556 0.821382 -5.00939e-20)
(0.120311 1.23597 5.7209e-19)
(0.545859 0.391525 5.75017e-19)
(0.384967 0.138778 6.29646e-19)
(0.493743 0.338154 6.98315e-19)
(0.541426 0.446386 -1.12466e-18)
(0.543851 0.444662 9.19557e-19)
(0.476871 0.348629 -3.49914e-19)
(0.372285 0.279372 7.94599e-19)
(0.72574 0.262542 -3.58538e-19)
(0.686941 0.285621 0)
(0.648593 0.205272 7.78175e-21)
(0.736851 0.506718 3.73022e-19)
(0.709863 0.476894 -1.35869e-18)
(0.615029 0.451624 1.29329e-20)
(0.618832 0.441881 0)
(0.684334 0.719676 3.98986e-19)
(0.845589 0.776101 4.00164e-19)
(0.770537 0.858285 -4.6813e-19)
(0.893377 0.814356 -1.57492e-19)
(0.925358 0.858645 -3.82967e-20)
(0.93251 0.858858 3.9214e-20)
(0.856949 0.654457 -6.92473e-19)
(0.93898 0.709018 1.46286e-19)
(0.99953 0.725294 0)
(0.990168 0.701779 -1.98482e-19)
(1.02739 0.337144 2.15385e-19)
(1.14541 0.302163 2.9272e-19)
(1.06787 0.274872 3.67238e-19)
(1.01504 0.369584 -4.35624e-19)
(1.06296 0.434197 0)
(1.11906 0.417018 0)
(0.921992 0.371654 3.36747e-21)
(0.841994 0.304519 0)
(0.883901 0.302893 4.08141e-19)
(0.911376 0.307666 -6.69178e-21)
(0.950204 0.440782 2.08645e-18)
(0.908925 0.497576 5.38328e-19)
(0.914034 0.463698 -5.73229e-19)
(0.834083 0.448214 6.14235e-19)
(0.816568 0.441294 3.68802e-19)
(0.785152 0.423565 -3.62675e-19)
(1.02734 -0.00031473 6.49067e-19)
(1.02 1.82613e-07 0)
(1.01852 0.000925349 4.23187e-19)
(1.02168 -0.00163721 -9.58618e-19)
(1.02233 0.00440096 4.65699e-19)
(1.02034 0.0113794 -9.75259e-19)
(1.02127 0.0107552 0)
(1.02054 0.0109862 -2.03252e-19)
(1.01595 0.00776971 5.09906e-19)
(1.01665 0.0105434 -2.54417e-19)
(1.01735 0.0098916 1.87376e-19)
(0.0284135 1.31866 0)
(0.0344517 1.36332 0)
(0.0432843 1.31979 0)
(0.0480586 1.27555 0)
(0.0706208 1.38676 -4.3248e-20)
(0.0773913 1.35617 2.00658e-20)
(0.11306 1.52735 -1.38466e-20)
(0.0949314 1.37216 -5.74072e-21)
(0.0337128 1.46085 5.99683e-21)
(0.0377451 1.4538 -4.45506e-21)
(0.0624032 1.37134 -8.40235e-21)
(0.0545736 1.37262 3.8385e-20)
(0.0484936 1.34801 5.54272e-21)
(0.0391946 1.37129 2.18783e-21)
(0.10696 2.37211 -1.51528e-19)
(0.0957853 2.41939 0)
(0.170708 2.0469 1.07677e-19)
(0.111124 1.70982 3.94241e-20)
(0.232719 2.042 -8.93594e-20)
(0.202651 2.43396 0)
(0.264131 2.38402 -6.02687e-19)
(0.303988 2.38169 4.26441e-19)
(0.230422 2.00287 -2.47796e-19)
(0.154677 2.16238 1.68455e-19)
(0.142374 2.27124 0)
(0.0168128 1.87828 -1.5255e-21)
(-0.00172239 2.39619 -4.55304e-20)
(0.00431438 2.15123 0)
(0.0101515 2.45845 -1.35212e-20)
(0.0266767 2.30271 1.24024e-20)
(0.0158533 1.4043 -5.12697e-21)
(0.013854 1.38925 8.71482e-20)
(0.0134086 1.39427 -2.92708e-20)
(0.0203122 1.39492 -2.36788e-20)
(0.0249165 1.42608 0)
(0.00906294 1.37553 0)
(0.000700394 1.29129 -3.15881e-20)
(0.00919673 1.36733 8.74629e-21)
(0.00960889 1.3674 0)
(0.00800035 1.28497 -2.3315e-20)
(0.0153585 1.2115 4.7783e-20)
(1.04061 0.0117615 0)
(1.04675 0.00802829 -6.79205e-20)
(1.03855 0.0218478 -4.90039e-19)
(1.04823 0.0206622 0)
(1.05216 0.0205185 0)
(1.03626 0.0119355 -6.75466e-21)
(1.03096 0.011773 7.87577e-19)
(1.0317 0.0166765 9.54848e-19)
(1.02556 0.0205548 0)
(1.02249 0.0209254 0)
(1.03505 0.0255146 4.88885e-19)
(1.02573 0.0268483 0)
(1.0238 0.0269208 0)
(-0.017954 2.02066 0)
(0.00161587 1.64769 -4.06043e-21)
(-0.00450687 1.75594 -2.61309e-20)
(0.00342567 1.37914 0)
(-0.00644126 1.54691 -1.1986e-20)
(-0.00632263 1.45643 8.03416e-21)
(0.000279629 1.39194 0)
(0.392633 1.65737 0)
(0.372889 1.30855 -6.71473e-20)
(0.304329 1.34605 0)
(0.427318 1.30885 3.20096e-21)
(0.474012 1.46437 0)
(0.45524 1.41188 2.60293e-20)
(1.03683 2.67927 -1.53932e-20)
(0.968376 2.40676 -9.14684e-19)
(0.921108 2.19385 1.02985e-18)
(0.852147 2.37526 2.42162e-19)
(0.848379 2.4899 0)
(0.918329 2.48573 0)
(0.930925 2.37158 0)
(0.909749 2.3606 -9.44347e-19)
(0.688946 2.45532 -3.93532e-19)
(0.801487 2.44484 -9.75031e-20)
(0.81205 2.41878 7.41397e-20)
(0.696093 2.39372 0)
(0.800973 2.3888 0)
(0.7593 2.40221 -3.68477e-19)
(0.768803 2.48032 0)
(0.627977 1.09464 0)
(0.482177 0.907933 -5.06193e-19)
(0.56227 0.947088 -3.20908e-20)
(0.521741 1.04199 0)
(0.521866 0.986935 7.59062e-19)
(0.79178 0.881332 -1.31281e-19)
(0.804549 1.01776 0)
(0.779325 0.984141 1.87997e-19)
(0.662375 1.03203 0)
(0.663804 0.935632 0)
(1.16467 2.75489 -2.29808e-19)
(1.14217 2.8182 -9.69526e-20)
(0.93078 2.3345 1.00225e-19)
(0.898669 2.31405 -8.32848e-20)
(1.13013 2.72806 0)
(1.08389 2.69769 1.00211e-19)
(1.0902 2.48177 -3.14802e-19)
(0.984957 2.23401 -3.05488e-20)
(0.496794 1.34085 0)
(0.511486 1.06824 -1.23133e-19)
(0.576779 1.16974 0)
(0.855962 0.243075 0)
(0.772457 0.192721 0)
(0.7003 0.155784 0)
(0.849074 0.24404 -6.42411e-19)
(0.743408 0.234185 3.73986e-19)
(0.925754 0.0810732 -4.11358e-19)
(0.93782 0.127094 0)
(0.920086 0.137843 1.77173e-19)
(0.856188 0.114384 7.10217e-19)
(0.821665 0.0735211 -4.4469e-19)
(1.15794 3.35257 -7.2136e-19)
(1.2065 3.272 0)
(1.15581 3.38125 -1.49121e-18)
(0.643892 3.54248 1.26598e-18)
(0.866776 3.11089 7.41555e-20)
(0.519931 0.816577 6.03692e-19)
(0.427312 0.813661 0)
(0.318797 0.426263 -1.50124e-19)
(0.462727 0.658354 8.59636e-19)
(0.548645 0.393788 -2.01147e-19)
(0.512188 0.476006 2.34043e-19)
(0.668645 0.516365 5.03147e-19)
(0.704153 0.550273 0)
(0.654597 0.586045 0)
(0.615923 0.532865 0)
(1.00084 0.61166 9.21357e-20)
(0.914014 0.547583 -5.23885e-19)
(0.939731 0.580525 3.95837e-19)
(0.97227 0.518875 -4.0504e-19)
(1.08011 0.490774 0)
(1.08839 0.580876 -9.94586e-20)
(0.856144 0.401494 -8.42083e-19)
(0.857663 0.390111 -1.04209e-18)
(0.795668 0.387334 6.56614e-19)
(0.800643 0.361111 -6.69662e-19)
(0.846211 0.323423 -5.26753e-19)
(0.795176 0.323085 6.45172e-19)
(1.02666 0.0059197 -4.95279e-19)
(1.02637 0.00613954 1.0075e-18)
(1.02938 9.77424e-05 6.29057e-19)
(1.03357 0.00100342 -7.57641e-19)
(1.03371 0.00902787 0)
(1.03004 0.00970579 -1.23318e-18)
(0.0625693 1.64322 2.09923e-20)
(0.0455411 1.58155 0)
(0.086076 1.69417 1.24406e-19)
(0.0963697 1.67626 -1.09173e-19)
(0.0886181 1.53783 2.59601e-20)
(0.0871589 1.5278 0)
(0.00988215 1.67985 0)
(-0.00364866 1.48412 3.73858e-21)
(-0.00322729 1.43085 -3.36229e-21)
(-0.00693502 1.54329 5.15761e-21)
(0.00129256 1.88156 5.39168e-21)
(-0.0104803 1.93494 7.67222e-22)
(0.499587 1.36553 -2.74156e-19)
(0.493167 1.36805 3.01128e-19)
(0.454515 1.30325 -2.95632e-20)
(0.439382 1.292 7.74241e-21)
(0.63823 1.30485 0)
(0.553808 1.39475 1.04846e-19)
(0.569436 1.39958 -1.02104e-19)
(0.467552 1.29101 2.87428e-20)
(0.522631 1.24303 0)
(0.574647 1.20627 0)
(0.656105 2.41503 5.78141e-19)
(0.670827 2.45603 1.26117e-18)
(0.71551 2.46673 -8.68729e-19)
(0.611809 2.44134 -2.01949e-19)
(0.561413 2.53171 2.83178e-19)
(0.510074 2.50605 -7.55065e-19)
(0.978535 2.3776 -5.76224e-19)
(1.01345 2.38993 0)
(0.926149 2.17157 -6.64174e-19)
(1.05461 2.67688 0)
(1.0569 2.66355 0)
(0.603769 2.26352 -1.19624e-19)
(1.03899 3.15685 1.34366e-19)
(0.910085 3.02724 -3.87685e-20)
(0.271328 0.871078 0)
(0.301759 0.720081 -3.17023e-19)
(0.468444 0.677904 -3.18602e-19)
(0.38274 2.00883 0)
(0.463884 2.78126 -5.16194e-20)
(0.418528 2.54435 0)
(0.704574 0.670759 -8.44087e-19)
(0.785781 0.680153 1.13882e-18)
(0.808214 0.624098 -1.12582e-18)
(0.684386 0.633801 -1.08704e-19)
(0.739259 0.590631 -4.47347e-19)
(1.00211 2.75757 -1.02182e-19)
(1.04179 2.81684 -1.61989e-19)
(0.635017 2.13156 6.80715e-19)
(0.588806 1.69962 -4.85418e-19)
(0.696288 1.89578 -4.0394e-19)
(0.988296 2.44107 -1.13355e-19)
(0.994712 2.43395 2.94422e-19)
(0.65427 1.83136 2.80208e-20)
(0.445019 1.31987 1.43908e-19)
)
;

boundaryField
{
    wall-4
    {
        type            noSlip;
    }
    velocity-inlet-5
    {
        type            fixedValue;
        value           uniform (1 0 0);
    }
    velocity-inlet-6
    {
        type            fixedValue;
        value           uniform (0 3 0);
    }
    pressure-outlet-7
    {
        type            zeroGradient;
    }
    wall-8
    {
        type            noSlip;
    }
    frontAndBackPlanes
    {
        type            empty;
    }
}


// ************************************************************************* //
