/*--------------------------------*- C++ -*----------------------------------*\
| =========                 |                                                 |
| \\      /  F ield         | OpenFOAM: The Open Source CFD Toolbox           |
|  \\    /   O peration     | Version:  4.0                                   |
|   \\  /    A nd           | Web:      www.OpenFOAM.org                      |
|    \\/     M anipulation  |                                                 |
\*---------------------------------------------------------------------------*/
FoamFile
{
    version     2.0;
    format      ascii;
    class       volScalarField;
    location    "30";
    object      p;
}
// * * * * * * * * * * * * * * * * * * * * * * * * * * * * * * * * * * * * * //

dimensions      [0 2 -2 0 0 0 0];

internalField   nonuniform List<scalar> 
918
(
0.393057
1.04144
0.0152083
0.392189
-0.0250756
1.00908
-0.667434
0.563484
0.372874
-0.24484
-0.202347
0.365779
0.869816
0.635398
-1.2865
-0.11561
0.516435
-0.544135
0.372204
-0.258053
0.599911
0.379369
0.382402
0.372805
0.434315
0.620591
0.750209
-0.0454279
0.00419291
-0.0545514
-0.10033
-0.191471
-0.220823
0.892437
0.943067
0.965639
0.341825
0.178474
-0.510969
-0.594818
-0.586052
-0.715401
0.557639
0.559924
-0.335913
0.564439
0.575561
0.360567
0.372214
0.373159
0.37428
0.373212
0.37465
0.258322
-0.253813
-0.281929
-0.222805
-0.214511
-0.0722423
-0.193158
-0.195127
-0.213076
-0.230496
0.293457
0.362497
0.359863
0.370526
0.377733
0.9802
0.951226
0.976844
0.893819
0.908661
0.847494
0.819485
0.656397
0.677883
0.621782
0.610343
-1.71051
-2.67105
-0.698761
-0.447067
-0.0258012
-0.0644706
-0.0799616
0.506551
0.507296
0.515175
0.530274
0.917331
-0.535754
-0.684653
0.372021
0.37098
0.379113
0.37946
0.37662
0.374699
-0.290107
-0.288887
-0.108669
-0.249502
-0.20496
0.586944
0.585881
0.374493
0.371099
0.383982
0.402479
0.396964
0.130596
0.437323
0.451406
0.436856
0.607392
0.60311
0.610788
0.724515
0.688192
0.787802
0.811022
-0.024614
-0.0164668
-0.149508
-0.206239
-0.201725
0.337788
0.329849
0.356065
0.345137
0.347509
0.0949792
-0.039191
0.27293
0.300626
-0.420712
-0.496654
-0.594405
-0.618973
-0.734017
0.454862
0.544715
0.545593
-0.346141
-0.277081
-0.414009
-0.191415
-0.260108
0.350956
0.357894
0.352268
0.36787
0.362612
0.364184
0.376493
0.373585
0.375092
0.319581
0.420364
0.189281
0.15214
-0.405198
-0.299112
-0.400552
-0.205604
-0.201443
-0.0658542
-0.0412807
-0.0810188
-0.079514
-0.196569
-0.195008
-0.195725
-0.254591
-0.259432
0.287988
0.27788
0.306343
0.313225
0.353998
0.35479
0.357391
0.356092
0.769699
0.792119
0.800704
0.774321
-3.6899
-6.74867
-0.120921
0.0197388
-0.0609531
-0.0551888
-0.0323932
-0.0649209
-0.022471
-0.0149975
-0.059289
-0.0706257
-0.0251706
-0.0691588
0.490787
0.493097
0.821857
0.811836
0.79044
0.735987
0.360133
0.362261
0.3678
0.363292
-0.286335
-0.289386
-0.288033
0.572875
0.580867
0.580263
0.0944219
0.0119352
0.179213
0.206298
0.475102
0.459543
0.474644
0.498323
0.534618
0.817493
0.835499
0.835603
0.843742
0.888859
0.901817
0.867588
0.318619
0.327813
0.323521
0.359302
0.356978
0.357893
0.353253
0.35482
0.352015
-0.210219
-0.572013
0.375295
0.38799
0.355818
0.370862
0.535388
0.586989
0.527126
0.535336
0.538176
-0.123754
-0.186549
0.106766
0.0769426
0.231019
0.265553
0.244128
0.740729
0.702492
0.752538
0.725458
0.686068
0.71143
-0.611544
-1.85504
-1.11308
0.378899
0.187861
0.276667
-0.0923287
-0.0831476
-0.0763669
0.79257
0.888195
0.467697
0.650761
0.700577
0.574715
0.605172
0.661773
0.586402
0.620414
0.654736
0.635562
0.409304
0.39006
0.379934
0.634731
0.685859
-0.00896034
-0.0565385
-0.113733
-0.0269698
0.0263962
0.000423898
0.851124
0.745223
0.821086
0.370685
0.371282
-0.102994
-0.150912
0.375402
0.375557
-0.118452
-0.239998
0.261939
-0.984512
-0.0304969
0.363513
0.354038
0.370818
-0.244825
0.224702
-0.182127
-0.0693821
-0.115438
0.363409
0.303214
0.265777
-0.167501
-0.170966
-0.305143
-0.368697
0.368196
0.366352
0.370328
0.371432
0.372046
-0.19033
-0.173208
-0.124459
-0.344579
-0.237967
-0.263156
0.335894
0.352368
-0.323069
0.370457
0.372655
0.372468
0.365314
0.371115
0.36909
-0.204273
-0.229718
-0.256947
0.086312
0.201225
0.507833
0.610752
0.474471
0.242487
-0.00485282
0.408001
0.473608
0.377722
0.533804
0.535055
0.556028
0.0366072
-0.121018
0.041107
-0.0168158
0.361694
0.360052
0.352404
0.34942
0.365785
0.363935
0.368365
0.36527
0.368155
0.369646
-0.193374
-0.209237
-0.237424
-0.301644
0.18452
0.448904
0.1087
0.149343
0.00740844
-0.188775
-0.196941
-0.177655
-0.190317
-0.118324
-0.138475
-0.0819986
-0.0689895
-0.103934
-0.103286
-0.125543
-0.142809
-0.161804
0.357166
0.35606
0.362167
0.369277
0.312402
0.316274
0.282844
0.302377
0.287966
0.231563
0.265427
0.239935
-0.119499
-0.197711
-0.107847
-0.180588
-0.121321
-0.319844
-0.299213
-0.385416
-0.262864
-0.280858
-0.320106
-0.306388
-0.330534
-0.446586
0.816231
0.758309
-0.0589347
0.357268
0.36376
0.360434
0.365335
0.368376
0.369307
0.367066
0.363567
0.353002
0.354899
0.351158
0.351494
-0.256883
-0.40168
-0.229199
-0.290714
-0.0327845
0.47023
0.213967
0.144702
0.145052
0.368034
0.777379
0.545641
0.541488
0.582096
-0.519448
-0.134676
-0.453061
0.136136
-0.0425897
0.505731
0.557689
0.581153
0.525967
0.477851
-0.413394
0.373601
-0.206559
-0.164148
0.0336637
-0.0707732
0.556804
0.519008
0.524994
0.542698
0.562963
0.521929
0.501331
0.498229
0.539711
0.546233
0.33793
0.121548
0.0648747
0.0345699
0.505259
0.379245
0.434013
0.349829
0.356408
0.359311
0.357799
0.340677
0.347879
0.343619
0.349163
0.352189
0.361723
0.36225
0.357354
0.359658
-0.189474
-0.198364
-0.167605
-0.290722
-0.281345
-0.342854
-0.213409
-0.0963494
-0.122731
0.0694854
0.148038
-0.122805
-0.221568
-0.192278
-0.177137
0.00466273
0.063861
-0.0617864
0.0220513
0.0127155
-0.00424038
0.106374
0.105313
-0.182012
-0.166559
-0.178264
-0.177261
-0.100328
-0.040476
-0.0176569
-0.180346
-0.128359
-0.208128
-0.233937
-0.178362
-0.171109
-0.162937
-0.129419
-0.307418
-0.21851
-0.201957
-0.205951
-0.147937
-0.169026
0.351573
0.353128
0.353103
0.360813
0.375332
0.38993
0.353409
0.334308
0.325392
0.327994
0.302382
0.312416
0.308503
0.320314
0.340535
0.348295
0.347412
0.349962
0.333474
0.335192
0.322697
0.32546
0.304263
0.286116
0.274468
-0.284274
-0.24842
-0.292277
-0.213504
-0.172399
-0.183669
-0.116258
-0.163097
-0.148402
-0.134834
-0.108617
-0.421695
-0.375018
-0.239044
-0.161965
-0.344947
-0.379951
-0.453835
0.722266
0.826801
0.651374
0.424299
0.433195
0.670091
0.755683
0.404503
0.561387
0.598604
0.413252
0.645987
0.362246
0.361748
0.359382
0.358889
0.360223
-0.169413
-0.0637585
-0.0610588
-0.000627703
0.11351
0.237133
0.134339
0.0048707
0.14174
0.135384
0.464009
0.482443
0.426521
0.452081
0.450802
0.278394
0.354279
0.409957
0.365723
0.407603
0.427156
0.391535
0.418377
0.369134
0.32454
0.326265
0.27075
0.284859
0.264619
0.247978
0.352058
0.329248
0.339876
0.330038
0.351413
0.376679
0.369955
0.398509
0.4099
0.336369
0.29765
0.304706
0.335045
0.296406
0.30967
0.323569
0.0617062
-0.00749832
0.0286477
-0.26305
-0.177393
-0.253754
-0.284996
-0.168406
0.131231
-0.610323
-0.672295
-1.22966
0.317545
0.839065
0.513559
0.456043
0.558907
0.533632
0.533697
0.566781
0.570526
0.494943
0.512034
0.519278
0.465347
0.488505
0.517848
0.514604
0.358185
0.219952
0.209436
0.175962
0.0566453
0.0923309
0.295366
0.209318
0.137661
0.154636
0.315675
0.212141
0.274984
0.303162
0.223663
0.197311
0.389685
0.46169
0.451909
0.425592
0.344253
0.3541
0.384566
0.418607
0.443834
0.481238
0.348954
0.354751
0.356059
0.353673
0.350725
0.353483
0.353553
0.3562
0.357047
0.360133
0.359081
-0.188595
-0.1786
-0.190111
-0.198637
-0.174009
-0.178656
-0.123775
-0.13079
-0.153819
-0.145756
-0.17543
-0.172907
-0.169803
-0.163896
-0.0475859
-0.0471865
-0.0571966
-0.0926047
0.071373
0.214373
0.270897
0.152364
0.0614382
0.0917124
0.108693
-0.166868
-0.116174
-0.131442
-0.0985046
-0.106328
-0.207134
-0.23544
-0.23683
-0.15495
-0.185302
-0.281899
-0.31761
-0.306339
-0.291315
-0.248758
-0.288189
0.336982
0.330786
0.330548
0.325488
0.324799
0.336906
0.341164
0.343479
0.348685
0.350149
0.341317
0.346139
0.349461
-0.299712
-0.378779
-0.347721
-0.289952
-0.341538
-0.428994
-0.351451
-0.0464712
-0.121159
-0.12072
-0.16052
-0.285343
-0.229454
0.319013
0.316806
0.345012
0.531623
0.393312
0.319522
0.40455
0.506582
0.0962192
0.29015
0.122719
0.704389
0.592263
0.734447
0.357359
0.0660706
0.223944
0.282097
0.0729651
0.149461
0.154053
0.0559709
0.0845905
0.105708
0.207349
0.104325
0.0863785
-0.164692
0.025519
0.149235
0.134036
0.262904
0.332878
0.0753757
0.00911446
-0.0233804
0.45428
0.475395
0.498866
0.463866
0.490398
0.411332
0.40184
0.421475
0.430807
0.423791
-0.954819
-0.662769
-1.58045
-0.870624
-0.429684
0.34995
0.314314
0.587875
0.478262
0.539859
0.526672
0.49805
0.461959
0.471381
0.504131
0.211684
0.315006
0.291842
0.296553
0.192265
0.138208
0.431318
0.422671
0.464194
0.486443
0.451844
0.487896
0.346781
0.346456
0.34588
0.342768
0.34137
0.343197
-0.0800478
-0.113773
-0.0773582
-0.0958654
-0.120981
-0.134339
-0.242161
-0.255154
-0.263083
-0.278905
-0.278119
-0.228093
-0.0187788
-0.075699
-0.142728
-0.116498
-0.173599
-0.239221
-0.258822
-0.159254
-0.0725169
-0.0675866
0.236455
0.468862
0.295229
0.460751
0.33023
0.360451
0.337679
0.330849
0.363603
0.229903
0.300396
0.111962
-0.422275
-0.303848
0.5704
0.635494
0.416178
0.284835
-0.00745578
0.122513
0.38731
0.316603
0.359723
0.430447
0.423075
-0.159118
-0.129257
0.201198
0.402851
0.0729901
0.00643333
0.0226773
0.183708
0.13736
)
;

boundaryField
{
    wall-4
    {
        type            zeroGradient;
    }
    velocity-inlet-5
    {
        type            zeroGradient;
    }
    velocity-inlet-6
    {
        type            zeroGradient;
    }
    pressure-outlet-7
    {
        type            fixedValue;
        value           uniform 0;
    }
    wall-8
    {
        type            zeroGradient;
    }
    frontAndBackPlanes
    {
        type            empty;
    }
}


// ************************************************************************* //
