/*--------------------------------*- C++ -*----------------------------------*\
| =========                 |                                                 |
| \\      /  F ield         | OpenFOAM: The Open Source CFD Toolbox           |
|  \\    /   O peration     | Version:  4.0                                   |
|   \\  /    A nd           | Web:      www.OpenFOAM.org                      |
|    \\/     M anipulation  |                                                 |
\*---------------------------------------------------------------------------*/
FoamFile
{
    version     2.0;
    format      ascii;
    class       surfaceScalarField;
    location    "30";
    object      phi;
}
// * * * * * * * * * * * * * * * * * * * * * * * * * * * * * * * * * * * * * //

dimensions      [0 3 -1 0 0 0 0];

internalField   nonuniform List<scalar> 
1300
(
3.75095
5.62643
-4.72959
3.75095
-4.94629
5.62643
-4.48509
4.48509
-1.06717
1.06717
1.87651
1.87444
-3.09175
3.09175
-2.47109
2.47109
-2.55397
2.55397
-5.24649
5.24649
-5.06866
5.06866
4.66287
-4.66287
-4.54203
4.54203
-1.45862
1.45862
-3.96485
3.96485
3.16871
-3.16871
-2.45801
2.45801
-0.297329
0.297329
-0.553191
4.30414
3.19776
3.19776
-2.09829
2.09829
-4.8636
4.8636
6.2178
-6.2178
6.61009
-6.61009
-1.8805
-3.36964
1.53348
-10.0389
-3.41282
-3.41282
-8.44023
8.44023
-2.8138
2.81263
2.94309
-2.94309
-1.86683
1.86683
-4.40627
-0.0788241
-4.40627
4.49395
-0.00885699
4.49395
-1.18099
0.11382
-1.18099
3.99431
-3.99431
0.908424
0.158747
0.908424
3.06479
-3.06479
-1.87715
3.75366
1.8738
-1.87176
6.1759
-1.87919
3.75364
-5.8736
5.8736
-3.30729
0.215545
-3.30729
2.88991
0.201838
2.88991
-6.66965
6.66965
-2.53815
0.0670533
-2.53815
2.33419
0.136905
2.33419
2.85934
-2.85934
-2.65515
0.101177
-2.65515
2.44352
0.110454
2.44352
0.353688
5.27274
-5.98012
8.79275
-5.27274
0.0262553
5.20836
0.0381238
5.20836
-5.10591
0.0372502
-5.10591
5.01102
0.0576363
5.01102
4.7398
-0.0769332
4.7398
-4.78604
0.123172
-4.78604
-2.82679
-5.12915
-5.32112
0.779092
-5.32112
-1.45835
-0.000274264
-1.45835
1.41657
0.0420556
1.41657
-3.53967
3.53967
-4.30698
0.342132
-4.30698
3.12269
0.0460253
3.12269
1.86906
1.8819
5.62001
-5.62001
2.4513
-2.25897
-0.199035
-2.25897
-2.72266
-3.88744
2.72266
-0.264652
-0.564887
0.267558
-0.564887
3.15996
0.0377983
3.15996
2.30276
0.140753
-2.30276
0.204468
3.19946
-3.19946
1.48497
0.613319
1.48497
-5.5674
5.5674
4.95294
0.0580845
-4.95294
0.0893406
6.15671
0.0610858
6.15671
-6.1998
-0.0180001
-6.1998
1.80291
-5.17255
-4.08394
3.80723
0.734797
-3.80723
0.394416
2.9126
0.0304927
2.9126
-2.91984
2.91984
-2.98339
0.0402964
-2.98339
-2.25073
0.3839
-2.25073
1.58269
0.284135
1.58269
-4.2859
-0.120369
-4.2859
-4.42428
0.117298
4.42428
0.0696748
1.1198
-1.1198
-1.29393
0.112937
-1.29393
-4.13972
-0.146187
4.13972
-0.145403
-3.84209
-0.152222
-3.84209
-3.02365
0.040261
3.02365
0.0411344
3.11297
0.0469973
-3.11297
0.0481816
-1.87092
3.75281
-1.88004
3.75384
-5.50441
-0.369186
-5.50441
6.18316
-0.309562
6.18316
3.64375
0.321098
-3.64375
0.336454
2.70152
0.188394
2.70152
-6.6582
-0.0114517
-6.6582
6.61751
0.0521362
6.61751
2.59676
0.104762
-2.59676
0.0586107
2.25194
0.0822523
2.25194
2.87074
-0.0114061
2.87074
-2.86204
0.00270152
-2.86204
2.80017
-2.80017
2.73166
0.0685155
-2.73166
0.0765105
-11.1328
11.1148
-0.0352454
-11.0976
5.17312
5.17312
4.15553
0.584268
4.15553
-5.00036
0.214318
-5.00036
2.05253
-6.13647
4.86965
-7.69644
4.87822
-14.9171
3.43875
-8.5679
6.30671
-6.30671
5.92236
0.384355
-5.92236
0.601236
-1.48175
0.0233969
-1.48175
-2.93576
-0.603905
-2.93576
4.19433
-0.654665
4.19433
-3.0284
3.0284
-3.0771
0.0487007
3.0771
0.045585
2.19645
0.05549
-2.19645
-0.0625273
0.740464
0.16796
-0.740464
0.175576
3.40746
-0.208001
3.40746
-3.00514
-0.194324
-3.00514
-1.48965
0.00789951
1.48965
-0.00467198
-5.81722
0.249827
-5.81722
-11.1907
0.093175
-11.1526
-6.10662
-6.10662
2.3336
11.1264
-2.88549
0.0234551
2.88549
0.0271064
2.97502
0.0533792
-2.97502
0.055187
-2.86192
0.0617505
2.86192
0.0579134
-2.63528
0.38455
-2.63528
-1.17503
1.17503
-1.35282
0.177791
1.35282
0.229868
1.35316
-0.233368
1.35316
1.36293
0.0536389
-1.36293
0.069002
-3.71986
-0.122226
-3.71986
6.42343
-0.240275
6.42343
-2.91055
-0.0945895
2.91055
-0.0398055
-0.0333215
11.1481
-5.1398
0.0338872
5.1398
-11.2092
11.2431
-3.26254
0.62726
3.26254
0.892996
5.28992
0.277473
-5.28992
0.289566
6.5061
0.111419
-6.5061
0.199381
-2.45771
-0.478056
-2.45771
-4.93719
-0.567223
4.93719
-0.742857
-11.4743
-0.203152
11.6775
-11.4167
6.02038
0.136338
-6.02038
11.3794
-1.08091
-0.0388905
1.08091
0.0941261
1.62617
-0.273007
1.62617
3.60217
-0.194707
-3.60217
-0.117693
-6.57774
-0.0804549
6.57774
-0.15431
-2.02332
-0.434389
2.02332
-0.397145
-4.26691
4.30471
1.90899
-1.20809
-3.96446
-5.09553
1.85166
1.90115
4.30296
-9.67826
-5.23882
-9.28385
7.26267
-6.9731
-9.27855
9.20161
7.56934
-7.72156
-5.78737
5.83295
6.48166
-6.44053
1.87886
1.8748
7.86222
-7.64667
-15.6617
15.2925
7.31052
-7.24347
15.7806
-15.792
-17.8179
17.9293
-5.73492
5.8361
-6.7191
6.7218
-6.91104
6.87124
-1.66926
-6.02717
13.3532
-12.5741
6.63546
-6.83449
-8.47398
8.81611
3.38188
0.922826
3.42888
-1.88238
3.76124
-1.87126
3.78025
4.48517
-6.15443
1.6513
-5.61576
3.41062
3.22483
-3.14597
-1.94955
-5.91666
5.94715
-5.82458
5.8825
8.93912
-9.01795
-1.88512
3.75992
-1.86872
3.76987
-3.42656
-2.36081
3.38053
0.922425
7.5257
5.8275
-8.2605
-1.02334
-7.8457
7.65099
-8.10332
7.90899
-0.4387
5.8178
-5.3791
4.4249
-1.55151
7.36931
5.71115
5.92547
5.86469
-5.58722
1.10841
-6.48751
-6.39817
-2.55085
2.66378
2.49531
-2.33656
5.95695
1.61239
5.81154
-5.57195
-2.14961
-5.69418
3.82199
2.01096
3.87069
4.07585
2.40582
4.11611
3.03078
-3.03525
0.00446605
-3.05615
6.08694
0.724668
-5.41696
-4.49454
4.89746
2.96476
5.0993
-5.46393
-2.18275
-5.12747
-9.53027
-6.13141
-10.0975
10.1164
5.17611
9.80682
-11.9695
11.8152
4.30116
3.00936
4.43806
-4.84298
-2.40049
-4.78437
11.5939
-2.51815
-9.07577
-10.3101
-7.50782
10.2579
5.52264
10.8926
7.03669
11.092
4.4109
7.18302
-9.93354
2.42571
-3.87561
-1.85932
-3.7991
3.70994
2.12616
3.8204
-4.21112
-2.50798
-4.18766
-4.28151
-2.62953
4.29292
2.42888
-4.37605
-3.72727
4.47063
2.4006
5.04874
-10.2876
3.51916
-9.54633
-9.38735
-3.18676
-8.78611
5.52859
1.74338
-7.27196
-0.625845
8.19116
-4.96633
6.2416
-3.94979
-2.8847
-4.01231
-6.74796
-1.72602
-6.63066
-8.84754
8.36948
-9.18005
8.52539
12.7087
-5.72726
-6.9814
-3.96813
-2.4724
3.91995
-0.491072
-3.71128
3.71575
0.049963
3.83021
4.75304
4.26197
-3.88879
-1.93579
-3.8336
3.83468
2.04781
3.89644
6.73109
2.20803
6.72223
-6.46256
-2.55539
-6.58293
9.05191
-8.66801
2.92566
-2.91776
5.27878
2.63021
-5.07078
-2.77492
6.1753
-3.11273
-3.06256
-12.2121
10.5786
1.63353
-4.84279
-0.417891
-0.120561
-5.49617
-3.78238
5.373
0.552476
11.131
7.34866
-5.51131
5.76113
6.16617
6.22425
-0.173918
5.78251
-5.15525
5.3366
-2.4128
-2.9238
5.32028
-5.46647
-1.26264
-5.26504
4.00239
0.345076
1.70818
-1.44063
-2.01925
-0.531592
-1.95025
1.47998
1.01533
1.64794
0.970166
1.69362
-2.94226
0.529124
2.41314
-1.9721
-1.80744
-3.6976
-1.03151
4.72911
5.62054
2.03046
-5.50284
-0.191334
2.71798
-2.67592
-0.804441
-2.89316
2.10251
-2.90695
-3.60123
-1.88512
5.48635
-3.37151
-0.462093
3.31813
0.55256
-3.8247
-2.09195
3.78441
0.3317
-3.1244
6.18846
-3.06407
-5.06019
2.52933
3.55761
4.54029
-4.78935
2.44567
2.34368
-1.23174
4.18953
0.909771
4.37792
-6.66885
4.4861
5.71563
3.10048
-6.03673
0.909255
-5.75959
8.44372
-7.23918
-1.20454
4.12309
4.32063
7.2064
5.50226
-5.76904
12.9754
-1.1485
-6.09068
6.90809
-3.80761
4.72737
-8.53498
-10.2296
4.13895
-9.24319
10.9698
-1.72663
-3.62245
-8.34704
12.8656
-1.21951
-11.6461
8.58732
-4.22812
-4.45946
8.68759
-6.74627
6.85995
-1.97688
-4.88307
-10.1
-5.69207
10.1804
1.63476
-10.3448
12.7705
-3.16175
3.34709
1.09097
3.42934
3.23895
-5.40221
2.16326
3.50732
-5.4842
2.09766
-7.49987
-7.68091
13.2864
-5.60545
-10.8677
-10.0931
-0.77454
2.55163
10.2189
-9.58832
7.40288
2.18544
3.31173
0.584706
-3.38025
-0.418852
0.267835
4.55546
-4.8233
4.08823
4.22899
3.40606
1.1494
3.8384
2.10875
-3.86551
-0.322154
-4.14712
1.51759
-1.71824
-3.64671
5.16431
-4.07277
0.426055
-2.72958
-3.51583
6.24541
-4.5889
3.03958
3.14888
5.08739
-4.90805
1.39222
-2.40243
-2.50561
2.68055
-4.39879
1.93586
3.22844
4.33646
0.609192
7.38202
5.90435
-9.12539
-0.420938
11.7318
-10.7085
2.68647
8.40554
-10.0893
-0.0037832
-8.78989
0.616366
-5.58269
-6.6556
5.03697
-6.76299
-3.49801
6.11687
0.605363
-6.18655
-0.444117
-6.02404
-2.8235
-6.45843
-3.05938
-6.12067
-8.82842
-1.64491
-7.18351
6.72457
-6.66341
-3.43408
7.40627
1.11912
-7.38296
7.34407
-7.45734
7.18433
0.0947046
3.62104
4.35667
1.88428
-2.3893
4.27358
-5.02733
7.23537
-8.47454
3.44721
3.98985
-6.54524
-4.48469
5.03943
4.01248
5.32356
8.94053
-10.443
1.50249
-10.8002
12.1064
-1.30623
-16.5626
5.76236
-7.62202
2.66769
0.257964
2.69109
0.670473
2.41767
-3.08814
-2.24728
-2.25196
-2.33199
-3.39545
5.72745
1.1369
-3.41312
2.27622
-3.47865
4.61555
-0.0662794
-3.34684
5.27278
-2.85511
5.53074
-3.54493
1.98581
3.32019
5.67883
-2.35864
4.33267
-1.70246
1.8377
-4.19634
-1.55775
-2.97576
5.10192
-3.26965
3.6957
-0.27862
3.97432
-4.09258
0.979844
-0.686517
3.54247
3.74694
4.28399
-3.13458
2.97492
-4.67737
-1.22143
-4.06818
-0.839736
-0.284694
-3.80098
4.08568
6.05969
-6.34438
-5.23084
9.55049
-4.31965
7.73179
-5.3915
-2.34029
-4.25246
-4.41555
3.86791
1.91459
9.64638
0.237883
-5.62938
-4.91736
-4.02437
3.20378
2.13282
-1.92343
3.55696
2.04399
-0.335803
0.580388
1.06755
1.86465
-1.28426
0.197494
1.66715
-1.24313
1.9938
0.724183
-2.04744
0.0971837
-1.38703
3.48953
1.02611
-2.04144
0.757176
1.06728
-3.48008
4.86789
-2.48791
-2.37998
5.93517
1.13634
-3.62426
4.1287
-3.78362
2.32323
-3.35475
-1.30102
-5.08464
-3.47225
-2.52689
4.80311
-3.20055
5.23101
1.20188
-5.03967
6.24156
-3.54667
1.66155
-3.06958
3.79376
-1.06888
-2.0007
2.78021
2.70615
-2.92206
0.0289037
-0.141858
2.32109
-2.46295
-0.585855
-2.55795
-4.57178
4.90348
-2.10761
4.55329
2.16597
-1.91425
6.46753
1.8118
-3.72605
-3.24839
-3.71048
-1.38237
3.15792
-0.539515
-4.24486
-5.42258
4.14009
0.237828
-6.86066
7.66152
-0.800865
-3.8959
-0.5902
4.71329
-5.97894
0.494741
-3.88128
3.78024
4.69001
4.92784
-11.4586
-0.187538
-6.28248
1.18099
-7.46347
5.50161
-3.64801
7.78695
-10.4465
7.01246
-9.32742
6.58242
-0.881053
6.25143
-4.08817
2.82435
-8.51642
-6.88165
5.56648
-2.55711
6.65745
-2.96872
9.62617
-6.13047
4.88166
4.7445
-0.81679
-3.19552
-5.17097
4.35418
-0.289308
3.14003
4.97108
-2.86233
4.64893
2.25785
-4.66028
-2.14094
-6.50155
1.84126
-3.35266
-1.91411
3.75538
3.17328
3.75799
1.24976
-3.33913
8.40008
-9.17462
-2.79462
-3.86097
4.90714
-0.552957
3.56025
-7.42123
-2.02244
4.91499
-0.862502
-4.05249
0.812267
-4.31028
1.65057
-5.96084
5.11242
-5.55654
2.17484
-9.79687
-5.20812
-5.11399
-2.21847
-5.23887
-7.63419
5.41572
-1.87183
5.47224
-8.62506
7.76256
-3.48136
8.89708
-5.42341
-1.03501
5.82056
1.36377
10.2609
0.192582
-4.67727
-1.91883
3.98962
-2.07079
1.28495
-3.6084
0.381222
2.47063
3.46453
-6.47303
-0.072217
-4.74949
-3.93065
7.94313
5.61983
11.6795
1.23651
9.12694
-1.18381
10.3634
4.13976
4.36962
-3.06646
4.56895
1.01922
4.46642
-0.845037
2.83085
1.84605
1.84578
0.830145
2.30097
1.44596
3.28082
0.192674
-2.05928
4.63451
-8.65888
-0.994871
-8.07461
1.12701
5.82777
-4.70076
3.1145
-0.981672
1.0437
0.131997
-1.65531
1.52332
-2.7918
-1.99112
-0.323963
-1.60213
2.3593
1.88741
-2.03534
-0.756462
0.317155
-3.7894
3.03759
-3.00869
-0.30254
5.93902
-2.7417
0.278749
-1.08015
-2.2792
-2.81079
2.71361
6.17576
0.291777
3.11169
5.19526
3.10331
0.240975
3.92948
-5.65612
-3.57039
-5.84365
-0.342042
4.37125
1.47043
8.74843
6.21493
5.66198
-1.75925
-10.9339
6.562
-1.99305
5.25577
-1.20328
-4.75757
4.94537
2.29
-5.55073
-0.00580534
-4.76337
-6.75642
-0.570846
8.33341
-9.69001
8.655
5.8315
1.35201
-4.40196
-0.712029
4.22417
0.14545
10.5089
-1.18007
-6.7465
7.92658
-4.6477
3.65283
0.797815
2.75914
2.32113
1.33946
-5.40704
-10.1078
-1.90492
-1.57516
-4.28489
0.44422
-2.33163
6.27837
-2.62555
3.93808
5.30103
6.34473
-2.1491
-4.19529
6.46875
-2.53067
3.81406
)
;

boundaryField
{
    wall-4
    {
        type            calculated;
        value           uniform 0;
    }
    velocity-inlet-5
    {
        type            calculated;
        value           uniform -3.75095;
    }
    velocity-inlet-6
    {
        type            calculated;
        value           uniform -5.62643;
    }
    pressure-outlet-7
    {
        type            calculated;
        value           nonuniform List<scalar> 8(4.72959 4.94629 5.25014 8.50538 7.95594 5.88685 6.92217 8.31698);
    }
    wall-8
    {
        type            calculated;
        value           uniform 0;
    }
    frontAndBackPlanes
    {
        type            empty;
        value           nonuniform 0();
    }
}


// ************************************************************************* //
