/*--------------------------------*- C++ -*----------------------------------*\
| =========                 |                                                 |
| \\      /  F ield         | OpenFOAM: The Open Source CFD Toolbox           |
|  \\    /   O peration     | Version:  4.0                                   |
|   \\  /    A nd           | Web:      www.OpenFOAM.org                      |
|    \\/     M anipulation  |                                                 |
\*---------------------------------------------------------------------------*/
FoamFile
{
    version     2.0;
    format      ascii;
    class       volVectorField;
    location    "30";
    object      U;
}
// * * * * * * * * * * * * * * * * * * * * * * * * * * * * * * * * * * * * * //

dimensions      [0 1 -1 0 0 0 0];

internalField   nonuniform List<vector> 
918
(
(0.985097 -0.000543567 0)
(0.00478628 2.96626 0)
(-0.0576587 1.24197 0)
(0.979824 0.00241278 0)
(-0.00803104 1.285 6.33314e-20)
(-0.0070473 2.94891 -9.33133e-19)
(0.833513 1.1912 2.4166e-19)
(0.351598 0.168785 -5.01066e-21)
(0.999903 -0.000311614 0)
(0.0569221 0.890357 0)
(0.0299641 0.706112 0)
(0.72915 -0.00733942 0)
(0.0114838 2.9302 0)
(0.00256132 2.79502 0)
(-0.0193889 3.15503 4.11368e-19)
(-0.129631 1.41543 3.39382e-20)
(0.439757 0.0613831 3.22198e-19)
(0.170034 1.23193 1.9396e-19)
(0.961954 0.00389567 0)
(-0.0416757 0.699868 0)
(0.0888771 0.196339 -2.41175e-19)
(1.00218 -0.00520847 0)
(1.00075 -0.0101648 0)
(0.975952 -0.00652381 0)
(0.58965 -0.0365942 0)
(0.0183272 2.63666 0)
(-0.0149443 2.91023 3.17662e-19)
(-0.127186 1.10555 0)
(-0.202077 1.38532 0)
(-0.09194 1.17499 0)
(-0.0498783 2.30159 0)
(0.0768328 1.38924 -4.90449e-20)
(0.0110204 0.998672 0)
(-0.0204659 2.98751 -3.31134e-23)
(-0.0169858 3.0054 7.41259e-19)
(0.00201416 3.00016 0)
(0.870175 -0.00877556 0)
(0.437737 0.974701 3.2805e-20)
(0.807399 1.20852 -3.05252e-19)
(0.957028 1.04461 3.04819e-19)
(0.676824 1.30624 -5.5845e-20)
(0.677585 1.29424 3.18785e-19)
(0.393716 0.256568 4.88563e-21)
(0.373205 0.145214 0)
(1.14905 0.58119 0)
(0.359861 0.254249 2.24272e-20)
(0.306231 0.171216 -2.32873e-20)
(0.919469 -0.00733019 0)
(1.0003 0.000136807 0)
(0.999919 0.000336804 0)
(1.00351 -0.00769053 0)
(1.00095 -0.000951919 0)
(1.00019 1.78976e-05 0)
(0.0648517 1.76461 -1.99935e-19)
(0.0298155 1.04401 0)
(0.0649544 0.956923 0)
(0.0239238 0.980632 0)
(0.0252441 0.8211 0)
(0.0242983 1.99312 0)
(-0.00845052 0.834289 0)
(0.00416145 0.723454 0)
(-0.000924981 0.786882 0)
(-0.00546812 0.660193 0)
(0.834728 -0.0140761 0)
(0.85208 0.0264231 0)
(0.765189 0.000837155 0)
(0.826743 0.0346678 0)
(0.695974 -0.0122736 0)
(0.0153312 3.00066 3.36839e-19)
(0.0117006 3.00832 0)
(0.00651358 3.00256 0)
(0.0141237 2.99719 3.75025e-24)
(0.00837814 2.95853 -5.09082e-19)
(0.0151915 2.98194 0)
(0.0111986 2.90368 0)
(0.0253746 2.93058 6.99085e-25)
(0.00493515 2.82495 0)
(0.031225 2.91594 0)
(-0.00514904 2.74452 0)
(0.304549 3.5487 0)
(-0.145818 3.62567 0)
(0.136241 3.24726 -3.79712e-19)
(-0.0104862 2.98586 0)
(-0.306916 2.12636 0)
(-0.141612 1.63348 -3.28636e-20)
(-0.119595 1.65295 1.89439e-20)
(0.523773 0.152202 -1.11353e-19)
(0.435513 0.0426945 -1.07428e-19)
(0.509344 0.176067 -3.35175e-19)
(0.422103 0.0870628 -2.23042e-19)
(0.183696 0.905507 0)
(0.249023 1.36105 -2.0959e-19)
(0.365141 1.31943 3.49205e-19)
(0.987344 0.00817788 0)
(0.941338 0.0054346 0)
(1.00031 0.000422434 0)
(1.00327 0.00948696 0)
(1.00289 0.00783904 -7.67972e-19)
(0.991779 0.00989945 5.86325e-19)
(-0.0322664 0.784859 0)
(-0.013709 0.629091 0)
(-0.124575 1.06426 0)
(-0.0396748 0.848797 0)
(-0.0225459 0.787694 0)
(0.143052 0.207155 7.47927e-20)
(0.195029 0.187983 0)
(0.993344 -0.00828063 0)
(0.954429 -0.0061536 0)
(0.781352 0.0392829 0)
(0.731215 0.0472353 0)
(0.656279 -0.027674 0)
(0.948706 -0.00216937 0)
(0.658212 0.0656077 0)
(0.491041 -0.0120802 4.49889e-19)
(-0.0366013 2.86402 1.99703e-19)
(0.0426678 2.90844 0)
(0.0550931 2.88456 0)
(-0.00478676 2.69803 0)
(-0.0136902 2.98518 2.95474e-19)
(-0.0180932 2.89519 0)
(-0.0158222 2.98803 -9.28654e-19)
(-0.0132368 2.92537 3.205e-19)
(-0.29209 1.38028 0)
(-0.30059 1.56453 0)
(-0.0910261 1.42505 2.42364e-21)
(-0.00272801 1.29736 0)
(-0.085152 1.15045 0)
(0.93754 -0.00778257 0)
(0.856114 -0.00848997 0)
(0.862993 0.00637172 0)
(0.948843 -0.00792471 0)
(0.883449 -0.00731838 0)
(0.546669 1.16948 -4.43171e-20)
(0.59684 1.20829 0)
(0.405032 0.927424 8.33158e-21)
(0.345028 0.784317 0)
(0.920491 1.08132 -8.56164e-20)
(1.032 0.886892 1.75634e-19)
(0.366325 1.4 0)
(0.531854 1.37083 0)
(0.532608 1.33143 0)
(0.114608 0.199336 -9.2594e-20)
(0.434506 0.240392 0)
(0.404783 0.125509 6.31525e-20)
(1.00774 0.940255 0)
(1.07984 0.793049 0)
(1.10272 0.735864 -1.48556e-19)
(1.12722 0.634798 0)
(1.17029 0.416816 2.41578e-20)
(0.957473 -0.00853212 0)
(0.962203 -0.0102199 0)
(0.901863 -0.00742205 0)
(0.984301 -0.00921896 0)
(0.974738 -0.00931585 0)
(0.937381 -0.00604612 0)
(1.00018 0.00213311 0)
(1.00087 0.00143372 0)
(0.999865 0.000902693 0)
(0.0268959 2.04166 1.15059e-19)
(0.100497 1.71768 0)
(0.0172564 2.15341 1.53693e-19)
(0.0400123 1.82663 -1.13345e-19)
(0.115806 1.23126 -1.59978e-19)
(0.041606 1.10689 0)
(0.107917 1.09944 0)
(0.0323505 0.929233 0)
(0.0166579 0.757924 0)
(-0.0139549 2.17564 3.68083e-22)
(0.0308653 1.98012 0)
(-0.015967 2.13843 2.79916e-20)
(0.0371746 1.99418 -5.78376e-20)
(0.0212945 0.889483 0)
(0.00890331 0.853255 0)
(0.0085827 0.727689 0)
(-0.00787572 0.763926 0)
(-0.0173065 0.631214 0)
(0.932129 0.00801351 0)
(0.838721 -0.0161856 0)
(0.923758 -0.00153802 0)
(0.83739 -0.0114415 0)
(0.811681 0.00316096 0)
(0.90288 0.0186267 0)
(0.881174 0.0220055 0)
(0.788117 0.00237264 0)
(0.00427172 3.06442 -2.88317e-21)
(0.016913 3.0577 0)
(0.0153811 2.96903 0)
(0.00892647 2.87622 0)
(0.963294 3.9857 0)
(1.30822 3.24858 4.70656e-19)
(0.0693858 3.077 0)
(-0.0248938 2.90774 0)
(-0.382115 1.62114 0)
(-0.380944 2.05839 0)
(-0.354723 1.84599 0)
(-0.162635 2.34908 -3.27792e-20)
(-0.287804 2.27265 0)
(-0.205143 2.21873 0)
(-0.0371314 1.92496 -2.18773e-21)
(-0.0937208 1.97918 -2.25749e-20)
(-0.122622 1.82525 -1.94915e-20)
(-0.101868 1.82739 0)
(0.55168 0.125769 1.65415e-19)
(0.450288 0.0188091 -1.62189e-19)
(0.271285 1.5469 0)
(0.238423 0.68932 -1.02455e-19)
(0.176728 1.64217 -3.38352e-19)
(0.198649 1.16599 3.39186e-19)
(0.90195 0.00595384 0)
(0.967455 0.0106368 0)
(0.974453 0.0105867 0)
(0.923349 0.0059179 0)
(0.0131954 0.738996 0)
(-0.0157886 0.747417 0)
(-0.0204077 0.622104 0)
(0.306358 0.248778 2.05763e-19)
(0.250792 0.223277 -2.4451e-19)
(0.258635 0.183625 0)
(1.07726 0.0870091 4.85309e-21)
(1.0565 0.0401252 0)
(0.989636 0.0405155 0)
(0.884682 -0.00429838 0)
(0.578412 0.0938859 0)
(0.602555 0.0695328 -7.23234e-19)
(0.467743 0.00205386 2.73945e-19)
(0.00915173 2.98198 2.27735e-19)
(-0.0321614 2.86763 1.97079e-20)
(0.00183534 3.04959 -6.16303e-21)
(0.0208218 3.04323 2.28586e-19)
(-0.0153773 2.99631 1.05865e-20)
(-0.0127601 2.9495 -4.28264e-23)
(-0.0175312 3.01151 -1.97157e-19)
(0.014184 3.02312 1.41845e-19)
(0.0066722 3.03663 -2.28223e-19)
(0.931423 -0.00298274 0)
(0.937902 -0.0033857 0)
(0.84242 -0.00778654 0)
(0.956609 0.0114317 0)
(0.94309 0.0126933 0)
(0.881456 0.0056897 0)
(0.918801 0.0151322 0)
(0.92682 0.0143022 0)
(0.838842 0.00421154 0)
(0.761478 1.43553 9.06096e-20)
(0.804511 1.52725 0)
(0.236574 0.387432 2.18226e-20)
(0.232837 0.697548 1.72676e-19)
(0.287647 0.766972 -1.02477e-19)
(0.311128 0.584491 1.95473e-19)
(0.316031 0.78243 4.87675e-19)
(0.122841 0.23157 1.13541e-19)
(0.481326 0.200808 2.37238e-19)
(0.455641 0.219454 6.07067e-20)
(0.415666 0.110301 1.18925e-19)
(1.16126 0.472656 6.67573e-20)
(1.16817 0.2693 6.80949e-20)
(0.0105849 2.19456 4.82672e-20)
(0.0427658 1.89807 0)
(0.953881 0.0286895 0)
(0.931805 0.0106353 0)
(0.85251 -0.0169017 0)
(0.0109961 3.07418 0)
(0.0204543 2.94396 4.02287e-19)
(0.0171885 2.95619 0)
(0.00670227 2.85069 -4.00925e-19)
(0.00577551 3.09128 9.39402e-20)
(0.00598707 3.08231 0)
(0.889772 1.83087 -8.72415e-20)
(1.27343 2.38159 1.78822e-19)
(0.869855 1.93479 -5.35826e-19)
(0.0202985 2.98203 -1.85309e-19)
(0.0364291 3.00319 0)
(-0.0327242 2.88015 0)
(-0.0305089 2.10705 4.16175e-22)
(-0.0475861 2.05623 5.31824e-20)
(0.00226757 1.97449 1.59744e-21)
(0.278401 1.36553 3.34555e-19)
(0.191503 0.48438 -2.28341e-19)
(0.0531755 1.96904 2.43764e-19)
(0.155452 1.86255 -3.01342e-19)
(0.145222 1.44448 3.93921e-20)
(0.00256559 3.11786 -5.67381e-19)
(0.0169543 3.11759 6.3816e-19)
(-0.00965929 2.98074 2.64063e-19)
(-0.00352388 2.97774 -2.42632e-19)
(-0.0216123 2.88217 -2.69085e-19)
(0.00765206 3.09843 -6.94403e-19)
(0.0010504 3.10655 6.96068e-19)
(0.267696 0.70883 0)
(0.231672 0.701946 -3.56198e-19)
(0.134727 0.251481 1.59183e-19)
(0.331929 0.894123 3.41878e-19)
(0.171569 0.258827 -5.28169e-19)
(1.16161 0.177875 3.64309e-21)
(1.16951 0.318522 0)
(1.14658 0.127487 2.05885e-20)
(-0.00681133 2.19548 1.26209e-22)
(-0.00333906 2.20038 0)
(0.0316008 1.95085 0)
(0.345975 1.25884 -1.2139e-19)
(0.365358 1.08809 -2.60613e-19)
(0.178723 0.347249 4.56126e-19)
(1.00554 -0.0111927 0)
(1.00751 -0.00745762 1.42114e-19)
(-0.296841 1.37734 0)
(-0.274079 1.19684 0)
(1.00197 0.00341522 7.84905e-22)
(1.00384 0.0100357 2.8832e-19)
(-0.17043 2.37784 4.29114e-20)
(-0.17282 2.41216 0)
(0.0354189 3.17816 1.09709e-19)
(0.387596 3.48378 0)
(1.14514 0.646031 -6.02893e-22)
(1.01325 0.0135163 -7.73883e-22)
(1.02101 -0.0108282 0)
(1.00175 0.000132251 2.78455e-23)
(0.100026 1.34897 0)
(0.150502 2.57583 0)
(0.0656751 1.2676 0)
(0.00387028 2.61937 -3.21705e-20)
(-0.0242917 2.58027 -3.45381e-20)
(1.00614 0.0296331 1.05448e-21)
(1.06099 0.00139783 0)
(1.0887 0.0126982 0)
(-0.362157 2.06001 0)
(-0.246449 2.55428 0)
(-0.0874192 1.04533 0)
(0.287417 1.45607 -1.23281e-19)
(1.01122 -0.0099456 0)
(1.00938 -0.0153624 0)
(1.00243 0.000643723 1.80322e-19)
(1.00538 -0.00479569 -2.14272e-19)
(1.00119 -0.0010937 0)
(-0.396675 1.81926 0)
(-0.349542 1.41399 0)
(-0.364634 1.64186 0)
(-0.0963624 1.01123 0)
(-0.186713 1.05569 0)
(-0.0964001 0.951326 0)
(1.03386 -0.00751387 0)
(1.02128 0.0161927 -3.87938e-22)
(0.801344 1.24498 1.51982e-19)
(1.00223 0.000402273 -1.79902e-19)
(1.00402 0.00531783 2.14554e-19)
(1.00116 0.00210508 0)
(1.01346 0.0105447 1.7747e-19)
(1.00862 0.00867756 -2.16602e-19)
(1.00931 0.0156746 0)
(-0.239195 2.57728 0)
(-0.220099 2.52442 -1.15408e-19)
(-0.242694 2.5012 8.66164e-20)
(1.20689 0.252121 1.07624e-19)
(1.14277 0.0807446 0)
(0.0469096 3.07504 -3.0009e-19)
(0.0660702 2.85162 -2.22813e-20)
(0.144608 3.19637 4.68968e-19)
(0.14151 3.22609 -3.73144e-20)
(0.134603 3.23666 0)
(0.020039 3.13697 7.43625e-20)
(0.0772081 3.16173 2.91107e-19)
(0.0699876 3.18649 -1.42826e-19)
(0.0235919 3.12932 0)
(0.669476 0.301273 0)
(0.575411 0.363218 0)
(1.09662 0.667372 -1.84113e-20)
(1.12585 0.803119 4.77358e-20)
(1.1602 0.554299 0)
(1.20665 0.503557 0)
(1.0164 0.0136146 -3.34228e-19)
(1.01513 0.0147986 4.18332e-19)
(1.02496 -0.0102848 0)
(1.02293 -0.0125626 0)
(1.00636 0.00254432 0)
(1.01012 0.0035471 0)
(1.00452 0.00188167 0)
(1.00987 0.00589781 0)
(1.00816 0.00627511 0)
(1.00438 0.00443684 0)
(0.0905524 1.34368 0)
(0.084971 1.31062 0)
(0.111768 1.37494 0)
(0.133356 1.40056 0)
(0.146745 2.59815 0)
(0.189605 2.65588 -1.35485e-19)
(0.101933 2.65659 0)
(0.087288 2.65656 3.83248e-20)
(0.0461192 2.67967 8.3691e-21)
(0.0907914 1.24754 0)
(0.0835914 1.14093 0)
(0.034553 1.3033 0)
(0.022805 1.25229 0)
(-0.0129584 1.97978 4.05731e-20)
(-0.0351628 2.60494 -5.54573e-20)
(-0.0161281 2.66352 -5.71223e-20)
(-0.0241671 2.67182 0)
(-0.0489931 2.61122 9.87982e-20)
(-0.0407512 2.60073 5.72887e-20)
(-0.00946974 1.9791 -2.96215e-20)
(-0.0372173 2.4191 7.17602e-20)
(-0.0204048 2.4309 6.78877e-20)
(1.01492 0.0347248 3.33609e-19)
(1.00977 0.018431 -4.14223e-19)
(1.00652 0.0421109 -3.37766e-19)
(0.988826 0.0234817 4.30416e-19)
(1.06187 0.00571612 0)
(1.04728 -0.00942956 0)
(1.0882 0.0240208 0)
(1.07042 0.00863018 0)
(1.06771 -0.00241203 0)
(1.12434 0.0725715 0)
(1.10083 0.0340365 0)
(1.10395 0.0223908 0)
(-0.219848 2.44377 9.557e-21)
(-0.365487 2.30618 0)
(-0.290141 2.32662 0)
(-0.200753 2.61391 -5.23356e-20)
(-0.148888 2.56399 7.06187e-22)
(-0.282427 1.98745 -1.46899e-19)
(-0.341315 1.8428 1.47685e-19)
(-0.177231 1.3705 0)
(-0.291572 1.40681 0)
(-0.329992 1.45559 0)
(-0.0108147 1.03043 0)
(-0.017631 0.917072 0)
(0.37224 1.47039 2.27267e-19)
(0.41468 1.4795 9.72495e-20)
(0.586567 2.4418 -8.09972e-20)
(0.408943 2.53689 2.2996e-19)
(0.349687 2.08551 2.56635e-21)
(1.02097 -0.00828253 0)
(1.01541 -0.00997556 0)
(1.01486 -0.0161975 0)
(1.00736 -0.00139288 0)
(1.00498 -0.00111421 0)
(1.0077 -0.00469902 0)
(1.00916 -0.00390119 0)
(1.01402 -0.00456997 0)
(1.02215 0.0160721 3.26653e-19)
(1.01849 0.01626 -4.14062e-19)
(1.02253 0.018001 -3.25176e-19)
(1.02008 0.0172044 4.08149e-19)
(0.767184 1.29583 0)
(0.703466 1.35025 1.73927e-19)
(0.87015 1.2044 9.12198e-20)
(0.931676 1.14752 -1.21343e-19)
(1.1599 2.60528 -6.57214e-20)
(0.82731 0.098286 1.78564e-19)
(1.13644 0.104196 0)
(1.18602 0.191015 -8.40766e-20)
(1.17649 0.148606 -3.5086e-21)
(1.00184 0.12859 0)
(0.160929 2.96063 1.19217e-19)
(0.117392 2.868 -4.07049e-19)
(0.0317424 2.37818 2.58702e-19)
(0.0964042 0.0333079 -1.06621e-19)
(0.336184 3.42506 -1.36973e-19)
(0.197208 3.32049 0)
(0.228277 3.35732 1.78258e-19)
(0.256944 3.04124 -4.74776e-19)
(0.360841 3.20192 0)
(0.00539746 3.12072 1.5278e-20)
(0.0159162 3.12929 -1.89129e-19)
(0.0140592 3.12514 2.77372e-19)
(0.0352933 3.1403 0)
(0.0336853 3.15036 0)
(1.19309 2.64558 0)
(0.544133 0.844314 -1.51376e-19)
(1.05595 0.971247 -3.85715e-20)
(0.961814 1.06059 0)
(0.805174 0.942345 -1.22931e-20)
(1.04339 0.874806 1.10011e-20)
(0.354805 0.417416 -2.93233e-19)
(0.702821 0.327478 -8.637e-21)
(0.689537 0.253531 1.31726e-19)
(0.586981 0.405332 9.90511e-21)
(0.50948 0.366395 -4.01891e-19)
(0.673944 0.349358 0)
(0.70337 0.428279 2.18962e-19)
(0.71169 0.421697 0)
(0.622673 0.392912 0)
(0.609895 0.304197 0)
(0.781101 0.610504 1.11457e-19)
(1.18973 0.279042 -1.00053e-19)
(1.19885 0.408852 0)
(1.22238 0.35351 0)
(0.76584 0.199866 1.9615e-19)
(0.828656 0.541436 -1.17046e-19)
(0.736022 0.518664 2.01144e-19)
(0.930324 0.416417 -2.1044e-19)
(1.02027 0.0145868 2.22179e-19)
(1.01826 0.014283 -2.24667e-19)
(1.01593 0.0163431 0)
(1.03541 -0.00683685 0)
(1.02932 -0.00901508 -2.07886e-19)
(1.02698 -0.0131718 2.06191e-19)
(1.02519 0.00946032 0)
(1.02387 0.0128903 0)
(1.01121 0.00387943 0)
(1.01437 0.00875566 0)
(1.01471 0.00379733 0)
(1.01386 0.00288695 0)
(0.0690498 1.32682 0)
(0.0668303 1.28608 0)
(0.145093 1.32809 6.46795e-20)
(0.264082 1.45426 6.93739e-20)
(0.151653 1.428 1.51049e-19)
(0.188069 1.43828 -2.44573e-19)
(0.167991 1.35947 0)
(0.121089 1.59002 4.78661e-20)
(0.104422 1.55375 0)
(0.352059 2.03529 -3.70874e-21)
(0.35672 2.3795 1.62348e-19)
(0.186029 1.43724 -4.18623e-20)
(0.254355 1.35457 4.40227e-20)
(0.191928 1.34309 -3.52611e-20)
(0.256661 1.29992 4.66643e-20)
(0.224974 1.57655 0)
(0.257248 1.6077 -1.956e-20)
(0.0254018 2.2707 1.31876e-20)
(0.040613 2.67095 0)
(0.0587085 2.41127 -7.99124e-21)
(0.0520785 2.43497 0)
(0.0702874 2.66664 -4.29288e-20)
(0.0542264 2.69863 0)
(0.0582325 1.43227 7.54717e-20)
(0.0112054 1.46698 0)
(0.0278564 1.39165 0)
(0.0650353 1.39873 -8.39905e-20)
(-0.00202708 2.64836 -1.04744e-20)
(0.0277585 2.69665 -1.74106e-20)
(0.0122184 2.71488 -1.04267e-22)
(0.0676323 1.90725 -5.77756e-20)
(0.0240692 1.66238 -1.90089e-20)
(0.0870386 1.12232 0)
(0.0556661 1.00313 0)
(0.0369363 1.56992 -9.82248e-20)
(0.0234662 1.43924 -9.33789e-20)
(0.0407554 1.50253 1.2006e-19)
(0.0317062 1.59626 0)
(-0.217104 2.48914 2.82665e-19)
(-0.215138 2.62395 -1.18185e-19)
(-0.136746 2.57963 2.5156e-20)
(0.00660504 1.93602 6.96463e-20)
(-0.0804767 2.54027 2.63915e-20)
(-0.0359449 2.47335 -8.22355e-20)
(1.02111 0.0206847 -2.19682e-19)
(1.0182 0.0255272 2.21101e-19)
(1.01557 0.0174095 0)
(1.0188 0.0635359 3.05871e-19)
(0.997405 0.0562368 -3.51667e-19)
(0.960313 0.0386142 3.97632e-19)
(1.01875 0.0930731 -4.09605e-20)
(1.04138 -0.00657584 0)
(1.04923 -0.00252551 1.95501e-19)
(1.03782 -0.0109465 -1.95067e-19)
(1.06847 0.0346819 -1.12995e-20)
(1.06241 0.0179635 9.8468e-20)
(1.06128 0.0443113 0)
(1.05606 0.0389424 -3.55778e-20)
(1.03352 0.0370072 0)
(1.02787 0.0335244 0)
(1.02745 0.0125309 0)
(1.02447 0.0154597 0)
(1.03836 0.0287917 7.34711e-20)
(1.03792 0.023556 -1.63617e-19)
(1.05043 0.0273094 -7.73881e-20)
(1.04787 0.0273506 -8.59804e-20)
(1.06971 0.0501323 1.64451e-19)
(1.08619 0.0409831 0)
(1.0957 0.0872341 0)
(-0.23544 2.50015 1.34752e-19)
(-0.312502 2.32268 1.36589e-20)
(-0.299787 2.36353 0)
(-0.252016 2.52505 -1.32126e-19)
(-0.248991 2.47929 -2.23147e-20)
(-0.231145 2.52016 2.54417e-20)
(-0.0737992 2.6123 -4.5987e-20)
(-0.118396 2.60508 5.14328e-21)
(-0.0802483 2.55595 -1.90206e-20)
(-0.120122 2.61616 3.30472e-20)
(-0.0776752 2.58142 -4.10123e-20)
(-0.140792 1.67985 -4.5638e-21)
(-0.177383 2.02942 -1.95445e-19)
(0.356695 1.40655 -1.08294e-19)
(0.354708 1.35537 -7.8717e-20)
(0.646441 1.39931 -1.68115e-19)
(0.512245 1.46656 -9.39935e-20)
(0.571685 1.4386 0)
(0.578384 2.41787 7.25766e-20)
(0.649906 2.41075 1.18728e-19)
(0.406878 2.51369 3.59057e-20)
(0.408008 2.55823 -1.48055e-19)
(0.522359 2.51419 1.73609e-19)
(0.539605 2.45559 0)
(0.480643 2.50675 -1.89138e-19)
(0.236711 2.58455 3.65512e-19)
(0.349044 2.56703 -3.24055e-20)
(0.282777 2.6456 -5.13411e-19)
(0.921602 2.38177 2.09069e-19)
(0.814451 2.38767 0)
(1.01097 9.00931e-05 7.21069e-21)
(1.01535 -0.0055665 -5.98416e-21)
(1.01741 -0.00360383 -1.0732e-19)
(1.01482 -0.00118015 1.08572e-19)
(1.0122 0.000753385 0)
(0.631098 1.26379 0)
(0.64317 1.15585 0)
(0.73978 1.0608 0)
(0.641053 1.11994 0)
(1.18562 2.61694 2.73484e-20)
(1.07681 2.36323 0)
(0.857108 2.19044 4.51642e-22)
(0.823558 2.46312 0)
(0.921005 2.54997 -7.47813e-20)
(0.959279 2.5076 4.86101e-20)
(0.831194 0.14669 0)
(0.807013 0.132667 4.9553e-20)
(0.925172 0.12231 2.76993e-19)
(0.847845 0.113897 -1.06193e-19)
(0.835342 0.0593078 -3.2344e-19)
(1.0564 0.221136 -2.40848e-19)
(0.982748 0.283057 -6.34738e-21)
(0.909054 0.26678 2.56556e-19)
(0.995115 0.204872 2.068e-19)
(0.946978 0.160302 -3.61739e-19)
(0.919479 0.168745 4.55942e-20)
(0.942543 0.226747 -9.52785e-20)
(0.924796 0.193239 0)
(0.990325 0.160905 1.76811e-19)
(1.03913 0.169599 0)
(1.03344 0.199511 0)
(1.08856 0.110554 7.54652e-20)
(1.07115 0.16247 -5.68689e-21)
(1.05374 0.224416 -4.02532e-20)
(1.09051 0.195957 0)
(1.02347 0.0420067 1.69695e-19)
(1.04528 0.0504682 2.06194e-19)
(1.03454 0.0387483 -1.66707e-19)
(1.04619 0.056305 -1.38683e-19)
(1.01906 0.0646628 -2.16364e-19)
(0.992074 0.130852 0)
(1.00607 0.0899926 0)
(0.976052 0.0572683 -1.42024e-19)
(0.926475 0.0684221 5.65439e-20)
(1.04212 0.0886686 1.93235e-19)
(1.06832 0.107673 -2.19805e-19)
(1.0748 0.137597 1.95316e-19)
(1.03256 0.131251 0)
(1.07336 0.0945541 0)
(1.06134 0.0747759 -9.00291e-20)
(1.05101 0.0849901 -1.57178e-19)
(0.586867 1.09341 1.02128e-20)
(0.626964 1.40214 2.55149e-20)
(1.16195 2.74162 -2.57276e-20)
(1.23892 3.07706 -1.81719e-20)
(1.25099 2.71431 1.11594e-19)
(1.28143 2.71216 -1.00668e-19)
(1.16811 2.35587 8.30873e-21)
(1.22725 2.97136 1.61295e-20)
(1.24878 2.94044 1.32399e-20)
(1.24474 3.2324 -1.11969e-19)
(1.36771 2.96945 1.28904e-19)
(1.30543 2.89367 0)
(0.548319 0.847563 -1.263e-20)
(0.119846 1.25609 2.0404e-19)
(0.545369 0.472419 1.94045e-19)
(0.35346 0.218235 2.0652e-19)
(0.526225 0.410336 2.27094e-19)
(0.548199 0.482796 -3.66923e-19)
(0.538701 0.503851 3.00397e-19)
(0.490441 0.423452 -1.15677e-19)
(0.418461 0.357022 2.62867e-19)
(0.767006 0.256271 -1.11157e-19)
(0.72531 0.290849 0)
(0.721756 0.228063 3.83405e-21)
(0.719801 0.52037 1.13953e-19)
(0.693275 0.48546 -4.1881e-19)
(0.60067 0.489787 5.65939e-21)
(0.619905 0.473213 0)
(0.66212 0.739794 1.12311e-19)
(0.822682 0.773843 8.70996e-20)
(0.743222 0.857146 -1.03531e-19)
(0.85667 0.797401 -3.4502e-20)
(0.882701 0.825925 -5.15986e-21)
(0.889804 0.829465 5.30096e-21)
(0.826351 0.633508 -1.87181e-19)
(0.898987 0.70066 3.21587e-20)
(0.951543 0.704533 0)
(0.932647 0.674494 -4.60395e-20)
(1.0081 0.308034 5.66017e-20)
(1.09534 0.283278 6.51359e-20)
(1.04036 0.258697 9.66553e-20)
(0.991887 0.352299 -1.18459e-19)
(1.03019 0.417073 0)
(1.07252 0.40076 0)
(0.900597 0.344084 2.36995e-21)
(0.839599 0.284576 0)
(0.861654 0.276241 1.23578e-19)
(0.899908 0.274127 -3.92323e-21)
(0.919351 0.418214 5.8375e-19)
(0.877711 0.483112 1.50981e-19)
(0.88029 0.446132 -1.70366e-19)
(0.808297 0.435182 1.82812e-19)
(0.792787 0.435055 1.14645e-19)
(0.761504 0.419815 -1.11602e-19)
(1.0273 -0.000644191 1.7629e-19)
(1.01997 -0.000249716 0)
(1.01857 0.000567231 1.16889e-19)
(1.02106 -0.00224228 -2.63052e-19)
(1.02218 0.00423664 1.28021e-19)
(1.02053 0.0108287 -2.6948e-19)
(1.02173 0.0101818 0)
(1.02123 0.0102676 -5.59151e-20)
(1.01608 0.00755281 1.40026e-19)
(1.01694 0.0101023 -7.09117e-20)
(1.01761 0.0093821 5.21688e-20)
(0.051131 1.31132 0)
(0.0391686 1.36388 0)
(0.0507698 1.31276 0)
(0.0316814 1.27127 0)
(0.0678162 1.36825 -1.53332e-19)
(0.0814477 1.33618 5.2337e-20)
(0.103772 1.48721 2.82658e-20)
(0.0850982 1.33259 -3.22394e-20)
(0.0288731 1.44807 9.09352e-20)
(0.0328183 1.43807 -6.88563e-20)
(0.0616511 1.3481 3.5199e-22)
(0.0558529 1.3497 9.39957e-20)
(0.0517458 1.33119 1.34285e-20)
(0.0352634 1.36337 1.17169e-20)
(0.103354 2.38789 9.3722e-21)
(0.0908568 2.43439 0)
(0.159139 2.08436 1.29654e-20)
(0.10665 1.70196 -1.51305e-20)
(0.232041 2.07114 -1.01424e-20)
(0.213223 2.45816 0)
(0.273454 2.41336 -1.34367e-19)
(0.306769 2.4139 9.52612e-20)
(0.222722 2.02253 -3.32528e-20)
(0.14475 2.18895 3.33807e-20)
(0.152279 2.31536 0)
(0.0229739 1.88611 9.76786e-20)
(-0.0062926 2.40852 8.03626e-20)
(-0.0147566 2.15885 0)
(0.00445406 2.46473 -5.38692e-21)
(0.0259512 2.31495 -4.13582e-20)
(0.108733 1.4396 -1.62579e-20)
(0.158644 1.37046 2.83782e-19)
(0.119525 1.43123 -9.70907e-20)
(0.0959148 1.45597 -7.76405e-20)
(0.0868557 1.46386 0)
(0.1107 1.40611 0)
(-0.0305859 1.04003 -1.38835e-19)
(0.086216 1.3215 4.35512e-20)
(0.126547 1.34668 0)
(0.0436063 1.02504 -8.93416e-20)
(0.0174561 0.893747 1.90907e-19)
(1.03966 0.00983298 0)
(1.04466 0.00657628 -1.82274e-20)
(1.03846 0.0202668 -1.31244e-19)
(1.04768 0.0181139 0)
(1.05144 0.0177758 0)
(1.03612 0.0100813 -2.70545e-21)
(1.03189 0.00964952 2.13273e-19)
(1.0314 0.015288 2.60868e-19)
(1.02614 0.0190253 0)
(1.02417 0.0197021 0)
(1.03475 0.0234288 1.31998e-19)
(1.02663 0.0246248 0)
(1.02617 0.0237183 0)
(-0.016575 2.23006 0)
(-0.0848149 2.05767 3.16765e-21)
(-0.0949645 2.16483 -6.42655e-20)
(0.0690431 1.31843 0)
(0.0514247 1.76252 -8.37701e-20)
(0.0442789 1.49953 7.3889e-20)
(0.0358302 1.27512 0)
(0.384727 1.70178 0)
(0.358518 1.27777 1.23262e-19)
(0.310567 1.33915 0)
(0.413709 1.27401 -1.75125e-19)
(0.458441 1.44217 0)
(0.438251 1.38619 8.67502e-20)
(1.02605 2.69302 -4.30681e-21)
(0.950648 2.41601 -2.55835e-19)
(0.895001 2.18275 3.07369e-19)
(0.82769 2.38297 8.57386e-20)
(0.839334 2.51282 0)
(0.908986 2.50151 0)
(0.897603 2.37927 0)
(0.906864 2.35093 -3.06808e-19)
(0.687961 2.48099 -8.35937e-20)
(0.795322 2.47909 -2.1905e-20)
(0.808713 2.44494 1.73527e-20)
(0.685464 2.38671 0)
(0.782832 2.38777 0)
(0.746374 2.39518 -1.22766e-19)
(0.760068 2.50821 0)
(0.616135 1.09302 0)
(0.488992 0.927704 -1.00091e-19)
(0.568876 0.950731 -6.8955e-21)
(0.531551 1.06144 0)
(0.533954 1.0134 1.51944e-19)
(0.766718 0.883271 -2.28134e-20)
(0.772312 1.00201 0)
(0.745631 0.947045 2.58247e-20)
(0.635569 1.03585 0)
(0.643415 0.940092 0)
(1.16684 2.75632 -3.91758e-20)
(1.14398 2.82199 1.58006e-21)
(0.941852 2.33829 -2.9864e-20)
(0.902871 2.31822 -1.25338e-20)
(1.12951 2.72853 0)
(1.08091 2.69782 1.59348e-20)
(1.08761 2.48223 -8.66853e-20)
(0.983116 2.23143 -1.35675e-20)
(0.502968 1.37128 0)
(0.510713 1.07904 -8.95347e-21)
(0.552895 1.13495 0)
(0.864028 0.214837 0)
(0.810481 0.171951 0)
(0.766845 0.147403 0)
(0.855274 0.223024 -1.95319e-19)
(0.785057 0.216054 1.17315e-19)
(0.935796 0.0550117 -1.17374e-19)
(0.952034 0.101392 0)
(0.926663 0.106406 5.1196e-20)
(0.871919 0.0826276 2.07438e-19)
(0.861507 0.0444841 -1.29212e-19)
(1.1748 3.36789 -3.66574e-19)
(1.22648 3.28918 0)
(1.14015 3.38652 -7.05902e-19)
(0.63925 3.54507 6.19957e-19)
(0.851889 3.11106 8.60613e-20)
(0.512097 0.859464 1.70278e-19)
(0.423695 0.854983 0)
(0.328495 0.515941 -4.69262e-20)
(0.445371 0.685626 2.47753e-19)
(0.539529 0.484785 -6.43165e-20)
(0.512838 0.531384 7.3016e-20)
(0.645141 0.540769 1.58279e-19)
(0.679756 0.555169 0)
(0.635825 0.620733 0)
(0.59231 0.557695 0)
(0.943756 0.591131 1.12332e-20)
(0.879996 0.531461 -1.45487e-19)
(0.899426 0.561755 1.02095e-19)
(0.934404 0.500575 -1.12011e-19)
(1.04361 0.473001 0)
(1.03459 0.557715 -2.26416e-20)
(0.834118 0.388022 -2.57611e-19)
(0.839863 0.373443 -3.04502e-19)
(0.789936 0.381027 2.00346e-19)
(0.784782 0.358227 -2.11565e-19)
(0.837155 0.313355 -1.62391e-19)
(0.789238 0.312226 1.99983e-19)
(1.02654 0.00552355 -1.3607e-19)
(1.02622 0.00586343 2.81659e-19)
(1.02942 -0.000929623 1.69798e-19)
(1.03308 0.000209998 -2.05337e-19)
(1.03271 0.00660075 0)
(1.03 0.00779328 -3.35361e-19)
(0.052016 1.64121 -7.59902e-21)
(0.035515 1.56855 0)
(0.0817702 1.68649 -7.28864e-20)
(0.0780919 1.66548 6.80877e-20)
(0.0934329 1.51576 -5.28038e-20)
(0.0890396 1.49589 0)
(0.136499 1.82837 0)
(0.0978186 1.62369 3.44991e-20)
(0.130198 1.472 -3.08627e-20)
(0.0951024 1.67271 7.89029e-21)
(0.0327829 2.1075 6.35477e-20)
(0.0343726 2.08769 -2.09045e-20)
(0.49734 1.38023 3.90462e-20)
(0.490609 1.39075 -4.01441e-20)
(0.436532 1.27287 8.36162e-20)
(0.431635 1.29354 -3.9722e-21)
(0.620643 1.28488 0)
(0.53566 1.37146 1.31281e-19)
(0.553671 1.38276 -1.27407e-19)
(0.443348 1.26224 -8.10291e-20)
(0.500908 1.21844 0)
(0.549441 1.1844 0)
(0.650037 2.43903 1.25465e-19)
(0.672109 2.47622 3.53719e-19)
(0.708672 2.49198 -2.42589e-19)
(0.611951 2.47806 -6.50013e-20)
(0.563552 2.56512 7.90584e-20)
(0.523809 2.54441 -2.10635e-19)
(0.969686 2.37582 -1.68805e-19)
(1.00965 2.38945 0)
(0.913739 2.16346 -2.03882e-19)
(1.04982 2.67974 0)
(1.05232 2.66671 0)
(0.607405 2.25651 3.53209e-21)
(1.03053 3.15942 1.20058e-19)
(0.897889 3.01977 -6.71617e-20)
(0.288769 0.920455 0)
(0.326472 0.762822 -9.6982e-20)
(0.467418 0.730851 -7.88855e-20)
(0.40065 1.98425 0)
(0.479473 2.78782 -6.09305e-20)
(0.435441 2.57123 0)
(0.671411 0.681935 -2.35146e-19)
(0.753852 0.68445 3.10039e-19)
(0.777781 0.621017 -3.03297e-19)
(0.658626 0.646639 -3.17235e-20)
(0.708684 0.600055 -1.29859e-19)
(1.01619 2.76563 -9.06714e-20)
(1.04765 2.83331 4.5615e-20)
(0.656367 2.13967 1.69638e-19)
(0.58699 1.7207 -1.22552e-19)
(0.713092 1.91083 -6.19448e-20)
(0.997951 2.47037 -3.58599e-20)
(0.997946 2.45713 9.40087e-21)
(0.670347 1.87639 2.91934e-21)
(0.464673 1.34408 1.58641e-20)
)
;

boundaryField
{
    wall-4
    {
        type            noSlip;
    }
    velocity-inlet-5
    {
        type            fixedValue;
        value           uniform (1 0 0);
    }
    velocity-inlet-6
    {
        type            fixedValue;
        value           uniform (0 3 0);
    }
    pressure-outlet-7
    {
        type            zeroGradient;
    }
    wall-8
    {
        type            noSlip;
    }
    frontAndBackPlanes
    {
        type            empty;
    }
}


// ************************************************************************* //
