/*--------------------------------*- C++ -*----------------------------------*\
| =========                 |                                                 |
| \\      /  F ield         | OpenFOAM: The Open Source CFD Toolbox           |
|  \\    /   O peration     | Version:  4.0                                   |
|   \\  /    A nd           | Web:      www.OpenFOAM.org                      |
|    \\/     M anipulation  |                                                 |
\*---------------------------------------------------------------------------*/
FoamFile
{
    version     2.0;
    format      ascii;
    class       volScalarField;
    location    "63";
    object      p;
}
// * * * * * * * * * * * * * * * * * * * * * * * * * * * * * * * * * * * * * //

dimensions      [0 2 -2 0 0 0 0];

internalField   nonuniform List<scalar> 
918
(
0.557053
1.18631
0.00122854
0.556492
-0.012564
1.15329
-0.508978
0.668977
0.537249
-0.110924
-0.046445
0.538206
1.01415
0.779747
-1.12372
-0.0100332
0.651846
-0.381343
0.536354
-0.0565562
0.696247
0.543792
0.546817
0.537396
0.599001
0.753817
0.895358
0.022236
0.00911601
0.00467105
-0.0118812
-0.0390104
-0.0330389
1.03694
1.08802
1.11072
0.50504
0.33293
-0.374317
-0.44679
-0.435213
-0.545728
0.665238
0.663445
-0.208423
0.672461
0.675378
0.524286
0.536617
0.537528
0.538553
0.537535
0.538916
0.404333
-0.111408
-0.142797
-0.0922699
-0.0843869
0.0539845
-0.047995
-0.0499562
-0.0448851
-0.0445931
0.45422
0.532664
0.529355
0.543078
0.553686
1.12586
1.09779
1.12392
1.03763
1.05408
0.992133
0.964725
0.800441
0.822567
0.765269
0.750804
-1.55587
-2.50785
-0.533585
-0.282872
-0.0105884
-0.00740644
-0.00153067
0.648633
0.649693
0.651351
0.65419
1.08043
-0.378584
-0.479296
0.536495
0.535304
0.543629
0.544329
0.540349
0.539439
-0.0479661
-0.0449999
-0.0475942
-0.0532003
-0.0516772
0.684903
0.685442
0.537926
0.53493
0.560954
0.581169
0.571515
0.278259
0.608724
0.625342
0.58563
0.745744
0.740341
0.749032
0.86907
0.832776
0.93221
0.955481
0.0165472
4.21792e-05
-0.0149957
-0.0194955
-0.0182198
0.500875
0.49342
0.520798
0.508473
0.510978
0.249584
0.116084
0.417915
0.442841
-0.292918
-0.358539
-0.429016
-0.459139
-0.567133
0.611857
0.660738
0.658651
-0.21931
-0.147328
-0.280023
-0.0742073
-0.136946
0.514554
0.521565
0.516565
0.532114
0.526582
0.528545
0.540886
0.537958
0.539517
0.466588
0.590292
0.330445
0.295087
-0.243501
-0.157483
-0.243893
-0.0727891
-0.0680299
0.0678997
0.0933819
0.0409267
0.0292487
-0.0617274
-0.0535202
-0.0575764
-0.0433438
-0.0441666
0.446985
0.435803
0.46691
0.474469
0.519482
0.520973
0.52565
0.523482
0.915536
0.938008
0.945451
0.919109
-3.49823
-6.28128
0.041903
0.178498
-0.00674082
-0.00927698
0.00205738
-0.00561572
0.00041723
-0.00185672
-0.00638766
-0.00780993
-0.00278382
-0.00155009
0.64257
0.643668
1.00242
1.009
0.978317
0.931096
0.524705
0.526778
0.532279
0.52816
-0.043316
-0.0439234
-0.0425688
0.678569
0.683456
0.68142
0.23988
0.150408
0.329204
0.358255
0.636238
0.625453
0.634921
0.647143
0.68308
0.962921
0.981076
0.979327
0.987553
1.03152
1.04787
1.01331
0.480304
0.490296
0.485238
0.523897
0.521676
0.522575
0.518471
0.519732
0.517728
-0.0344607
-0.414701
0.49035
0.507374
0.492421
0.495077
0.692053
0.7707
0.654085
0.65669
0.655965
-0.00542939
-0.0638347
0.250419
0.216473
0.38662
0.422977
0.401972
0.886886
0.84689
0.897094
0.870465
0.831574
0.858109
-0.366303
-1.86654
-0.985244
0.528481
0.342818
0.430356
0.0110713
-0.00579202
-0.00128963
1.00178
1.07429
0.646121
0.820947
0.823754
0.717265
0.746884
0.806878
0.732131
0.767382
0.801459
0.779627
0.567897
0.503479
0.519441
0.839918
0.895716
0.120596
0.0595729
0.0155803
0.112075
0.169302
0.143427
1.03448
0.949606
1.01989
0.53469
0.535409
-0.00467505
-0.0182215
0.539648
0.539703
-0.0119716
-0.00115746
0.41265
-0.831897
0.10101
0.528222
0.518144
0.535265
-0.0946828
0.35578
-0.0474182
0.048787
-0.00723888
0.530858
0.465352
0.424458
0.0014237
-0.0185743
-0.0481881
-0.213545
0.53236
0.530665
0.534733
0.535677
0.536356
-0.0178328
-0.0133261
-0.00987828
-0.045317
-0.0396609
-0.050576
0.499206
0.51831
-0.169757
0.534879
0.537012
0.536832
0.530088
0.535721
0.533971
-0.00947766
-0.0149179
-0.0172875
0.220574
0.351817
0.65201
0.739831
0.623305
0.399697
0.164567
0.555768
0.618689
0.524664
0.678038
0.656821
0.669678
0.166601
0.0164146
0.175086
0.116657
0.526083
0.524796
0.516399
0.513364
0.530132
0.528245
0.532804
0.529823
0.532773
0.534156
-0.0508085
-0.0785492
-0.0875957
-0.15561
0.310534
0.571933
0.254114
0.284113
0.142268
-0.0416922
-0.0415032
-0.0459628
-0.0532192
0.00148005
-0.0223343
0.0436702
0.0441473
0.0161562
-0.00980005
-0.00641739
-0.0172978
-0.0127338
0.524681
0.524435
0.527791
0.536565
0.474997
0.478776
0.44363
0.464382
0.449654
0.388447
0.42367
0.398924
-0.00453549
0.00421217
-0.00170908
-0.0162652
-0.0130598
-0.031961
-0.02873
-0.0247209
-0.02055
-0.0271137
-0.0424909
-0.04442
-0.171372
-0.286874
0.988883
0.910398
0.136961
0.521511
0.527965
0.524727
0.529644
0.532771
0.533576
0.531287
0.527836
0.518614
0.520112
0.517012
0.517995
-0.10146
-0.242367
-0.0704733
-0.144273
0.144568
0.627274
0.363709
0.299507
0.294665
0.522823
0.916662
0.700808
0.675246
0.682426
-0.342598
0.0469024
-0.278666
0.336232
0.163781
0.653756
0.701383
0.721147
0.670469
0.624051
-0.102288
0.555852
-0.071089
-0.0193049
0.181838
0.058834
0.667923
0.643672
0.649037
0.661957
0.677607
0.64849
0.634634
0.630217
0.656773
0.65872
0.486173
0.251373
0.202533
0.16401
0.6421
0.520545
0.57274
0.491842
0.521305
0.523893
0.522534
0.504038
0.511623
0.507144
0.513725
0.517246
0.525849
0.526311
0.521592
0.523724
-0.0574419
-0.0624322
-0.0290596
-0.136332
-0.129945
-0.192028
-0.0617894
0.0762509
0.0371554
0.237577
0.341876
0.0530139
-0.0575869
-0.0303063
0.0120834
0.18055
0.208339
0.0745138
0.162453
0.153051
0.134882
0.237332
0.241018
-0.0263528
-0.0295314
-0.0334584
-0.0352321
0.0196872
0.0904236
0.100102
-0.00445966
-0.01059
-0.0395151
-0.0404813
-0.0213118
-0.0269414
-0.0223268
0.00801881
-0.0517992
-0.0189015
-0.00480369
-0.00136845
-0.00336588
-0.00896486
0.518176
0.520587
0.520344
0.526535
0.540657
0.555569
0.520004
0.497206
0.487989
0.491009
0.46385
0.474192
0.469861
0.483558
0.504648
0.514195
0.511848
0.514702
0.496805
0.498616
0.485091
0.488774
0.46366
0.444464
0.432582
-0.0413303
-0.00230498
-0.0104096
-0.0366771
-0.00671641
-0.0189046
-0.00929756
0.00975761
-0.00648665
-0.00818569
-0.0186054
-0.0247502
-0.024077
-0.0732238
0.0133395
-0.183729
-0.219569
-0.292307
0.890928
1.01501
0.810602
0.583689
0.603685
0.846792
0.931464
0.543722
0.736014
0.759201
0.586687
0.854275
0.526354
0.525953
0.523553
0.523033
0.524252
-0.00680744
0.0989701
0.0983754
0.160823
0.27632
0.388078
0.31858
0.194034
0.324341
0.32683
0.620593
0.632585
0.587794
0.611579
0.612419
0.425482
0.501025
0.553018
0.512731
0.565162
0.586469
0.540609
0.573305
0.523399
0.47851
0.47449
0.424744
0.444348
0.420203
0.403265
0.515044
0.493138
0.503432
0.494145
0.513809
0.541492
0.538253
0.562023
0.576698
0.497903
0.452932
0.462307
0.492547
0.453657
0.469021
0.485396
0.231559
0.133288
0.216356
-0.0694717
0.00242382
-0.010469
-0.0588879
-0.00831628
0.276087
-0.41557
-0.392005
-1.01961
0.502554
0.953482
0.604562
0.577994
0.676398
0.659513
0.665054
0.681489
0.683223
0.63052
0.64088
0.645545
0.603768
0.625143
0.644008
0.640466
0.52504
0.384781
0.383126
0.332042
0.202231
0.24168
0.438698
0.362469
0.287419
0.287731
0.457397
0.344231
0.413914
0.447925
0.379429
0.333909
0.53658
0.602148
0.595601
0.569201
0.48156
0.494414
0.518405
0.552479
0.577123
0.607465
0.513128
0.519059
0.52029
0.517764
0.515047
0.518114
0.518368
0.520917
0.521551
0.524548
0.523599
-0.048071
-0.035148
-0.0486671
-0.0577464
-0.0199775
-0.0222608
0.0226774
0.00723376
-0.0137784
-0.00838719
-0.0320193
-0.0365494
-0.0325097
-0.0239602
0.100586
0.113386
0.0972218
0.0574718
0.251279
0.380705
0.455199
0.330476
0.223955
0.247033
0.266632
-0.0118508
0.0137636
0.000747568
0.0403571
0.0324687
-0.0345695
-0.0382606
-0.0355476
-0.0286153
-0.0191916
-0.0355905
-0.040062
-0.0309293
-0.0358868
-0.0388552
-0.0428979
0.499468
0.492916
0.494619
0.488413
0.487135
0.501604
0.505884
0.507857
0.513407
0.515864
0.505684
0.511437
0.515503
-0.00980596
-0.032847
-0.0365986
-0.0264034
-0.0289854
-0.0268714
-0.028269
0.123644
0.0541926
0.0584468
0.0105038
-0.121285
-0.0633522
0.49133
0.490057
0.479539
0.7209
0.570201
0.490712
0.587687
0.693461
0.276118
0.472932
0.307879
0.888568
0.784872
0.931279
0.542447
0.244913
0.407591
0.451333
0.264006
0.339333
0.325615
0.214811
0.245568
0.282713
0.38188
0.264993
0.241551
-0.00155638
0.188805
0.301157
0.282963
0.407724
0.468503
0.265814
0.185309
0.14055
0.605328
0.624864
0.638496
0.61101
0.632047
0.579372
0.571286
0.587204
0.595462
0.589076
-0.747651
-0.45417
-1.4006
-0.722295
-0.267735
0.532968
0.503732
0.769163
0.646908
0.686024
0.671225
0.630033
0.599357
0.622125
0.646004
0.34332
0.454139
0.429385
0.434761
0.337023
0.267628
0.565524
0.561963
0.594106
0.61732
0.590083
0.619203
0.510963
0.510689
0.510137
0.506378
0.504648
0.507024
0.0577074
0.0255096
0.0638335
0.0451097
0.0218334
0.00890326
-0.00710205
-0.0170749
-0.0243943
-0.0242161
-0.010208
-0.00617544
0.171246
0.109124
0.0294714
0.0588031
-0.0019701
-0.0707118
-0.0894776
0.015448
0.111719
0.101874
0.405486
0.655261
0.475253
0.642752
0.485185
0.540978
0.468074
0.45948
0.484558
0.379231
0.459763
0.246365
-0.261097
-0.170196
0.792889
0.804571
0.58087
0.404506
0.173054
0.352704
0.542969
0.473772
0.509569
0.578659
0.56639
0.026542
0.0852963
0.368822
0.595709
0.239258
0.230429
0.224029
0.407052
0.326059
)
;

boundaryField
{
    wall-4
    {
        type            zeroGradient;
    }
    velocity-inlet-5
    {
        type            zeroGradient;
    }
    velocity-inlet-6
    {
        type            zeroGradient;
    }
    pressure-outlet-7
    {
        type            fixedValue;
        value           uniform 0;
    }
    wall-8
    {
        type            zeroGradient;
    }
    frontAndBackPlanes
    {
        type            empty;
    }
}


// ************************************************************************* //
