/*--------------------------------*- C++ -*----------------------------------*\
| =========                 |                                                 |
| \\      /  F ield         | OpenFOAM: The Open Source CFD Toolbox           |
|  \\    /   O peration     | Version:  4.0                                   |
|   \\  /    A nd           | Web:      www.OpenFOAM.org                      |
|    \\/     M anipulation  |                                                 |
\*---------------------------------------------------------------------------*/
FoamFile
{
    version     2.0;
    format      ascii;
    class       volVectorField;
    location    "61";
    object      U;
}
// * * * * * * * * * * * * * * * * * * * * * * * * * * * * * * * * * * * * * //

dimensions      [0 1 -1 0 0 0 0];

internalField   nonuniform List<vector> 
918
(
(0.985161 -0.000506544 0)
(0.00501433 2.96625 0)
(0.00914651 0.88908 0)
(0.979704 0.00214615 0)
(-0.0114718 2.06059 3.79955e-20)
(-0.00704606 2.9488 -2.46619e-18)
(0.818393 1.16102 4.47834e-19)
(0.14441 0.0802999 -1.49582e-20)
(0.999909 -0.000277543 0)
(0.0612427 0.735852 0)
(0.0137837 0.528518 0)
(0.735828 -0.0161671 0)
(0.011091 2.93038 0)
(0.00273718 2.79485 0)
(-0.0177423 3.15007 7.80273e-19)
(-0.0220505 1.91104 8.17894e-21)
(0.280046 0.0441322 1.01814e-18)
(0.188024 1.13742 3.17669e-19)
(0.962733 0.00501797 0)
(0.00828837 0.495699 0)
(-0.00915643 0.107813 -7.04222e-19)
(1.00197 -0.0049762 0)
(1.00022 -0.00978564 0)
(0.975736 -0.006439 0)
(0.59861 0.0123827 0)
(0.0149968 2.64131 0)
(-0.0148554 2.90999 9.074e-19)
(0.0106427 0.938955 0)
(-0.0153622 1.18079 0)
(0.0129672 0.921249 0)
(-0.0135305 2.59588 0)
(-0.000489243 2.11463 -3.03442e-20)
(-0.0109396 1.89085 0)
(-0.0206116 2.9876 -8.86366e-23)
(-0.0166872 3.00529 1.9167e-18)
(0.00210079 3.00018 0)
(0.871286 -0.00964621 0)
(0.403042 0.93387 1.79645e-19)
(0.80292 1.17563 -5.10603e-19)
(0.954762 1.02024 5.54086e-19)
(0.671969 1.26732 -1.03661e-19)
(0.673261 1.24185 5.97435e-19)
(0.182666 0.135933 1.45931e-20)
(0.161963 0.0582147 0)
(1.15574 0.560977 0)
(0.157297 0.121677 6.65311e-20)
(0.121144 0.0751933 -6.90349e-20)
(0.919888 -0.0074555 0)
(1.00027 0.000160173 0)
(0.999909 0.000338088 0)
(1.00363 -0.00776118 0)
(1.00096 -0.000920999 0)
(1.00017 3.56599e-05 0)
(0.073444 1.82558 -7.72692e-19)
(0.0277416 0.947283 0)
(0.0975393 0.8099 0)
(0.0087087 0.903155 0)
(0.0358046 0.664084 0)
(0.00629037 2.011 0)
(-0.000659585 0.815872 0)
(0.0116661 0.546234 0)
(-0.00354251 0.809079 0)
(0.00860721 0.517627 0)
(0.841331 -0.0157444 0)
(0.839191 0.0329685 0)
(0.767082 -0.00902475 0)
(0.803595 0.0388015 0)
(0.702097 -0.00559236 0)
(0.0146876 3.0004 9.14147e-19)
(0.0114987 3.00801 0)
(0.00611655 3.00277 0)
(0.0135361 2.99735 1.0371e-23)
(0.00797299 2.95848 -1.35865e-18)
(0.014491 2.98205 0)
(0.0108454 2.9036 0)
(0.0245699 2.93085 2.07773e-24)
(0.00466229 2.82475 0)
(0.0301938 2.91645 0)
(-0.0050872 2.74533 0)
(0.305503 3.54338 0)
(-0.131614 3.62415 0)
(0.138028 3.24011 -7.26117e-19)
(-0.0133791 2.97797 0)
(-0.0254168 1.98628 0)
(-0.00706029 2.16609 -8.06684e-21)
(-0.016194 1.91907 1.61593e-21)
(0.356147 0.145459 -3.53506e-19)
(0.308591 0.0262426 -3.43247e-19)
(0.314444 0.151911 -1.05836e-18)
(0.244322 0.0523206 -6.89233e-19)
(0.228821 0.981684 0)
(0.271965 1.28806 -3.68149e-19)
(0.365675 1.22478 6.14148e-19)
(0.987441 0.00856945 0)
(0.94187 0.00583004 0)
(1.0003 0.000580406 0)
(1.00286 0.00930872 0)
(1.00301 0.00846996 -2.74336e-18)
(0.991909 0.00969609 2.07169e-18)
(-0.00707004 0.79567 0)
(0.00789741 0.505562 0)
(-0.0422153 1.00756 0)
(-0.0210871 0.836266 0)
(0.00633599 0.493879 0)
(-0.00387859 0.120052 2.17317e-19)
(0.07873 0.0889815 0)
(0.993551 -0.00837198 0)
(0.954459 -0.00652958 0)
(0.746287 0.0353207 0)
(0.68072 0.0284979 0)
(0.663561 0.00445172 0)
(0.96987 -0.00754643 0)
(0.597349 0.0735028 0)
(0.447207 -0.0118035 1.53873e-18)
(-0.037315 2.86209 6.70297e-19)
(0.0414123 2.90974 0)
(0.0534422 2.88609 0)
(-0.00419908 2.70023 0)
(-0.0133457 2.98517 8.59019e-19)
(-0.017862 2.89506 0)
(-0.0153876 2.98808 -2.66392e-18)
(-0.0133359 2.92518 9.11871e-19)
(-0.0254887 1.34451 0)
(-0.00180199 1.37356 0)
(-0.0071774 2.13091 4.80106e-22)
(-0.0059383 2.09287 0)
(-0.023856 1.89841 0)
(0.938537 -0.00741574 0)
(0.857386 -0.00996074 0)
(0.86327 0.00573306 0)
(0.949558 -0.00783581 0)
(0.884019 -0.00818421 0)
(0.514561 1.12691 -2.2689e-19)
(0.563721 1.178 0)
(0.367644 0.878813 3.35634e-20)
(0.310215 0.737513 0)
(0.915027 1.05841 -1.52671e-19)
(1.0321 0.867399 3.09332e-19)
(0.358936 1.35094 0)
(0.524476 1.32332 0)
(0.547365 1.26147 0)
(0.120729 0.18482 -3.02071e-19)
(0.205704 0.1345 0)
(0.18975 0.0726886 1.92326e-19)
(1.00321 0.922087 0)
(1.07658 0.776045 0)
(1.10164 0.717496 -2.44809e-19)
(1.13515 0.62049 0)
(1.18597 0.404548 5.69471e-20)
(0.957736 -0.00871579 0)
(0.9625 -0.0100421 0)
(0.90173 -0.00797893 0)
(0.9842 -0.00914878 0)
(0.974705 -0.00933748 0)
(0.937129 -0.00637129 0)
(1.00019 0.00233917 0)
(1.0009 0.0014132 0)
(0.99991 0.000854585 0)
(0.0353782 2.07388 4.28273e-19)
(0.118984 1.76851 0)
(0.0177911 2.18801 6.58092e-19)
(0.0462306 1.87939 -5.48865e-19)
(0.105132 1.14453 -2.6021e-19)
(0.0470445 1.02528 0)
(0.142618 0.972878 0)
(0.00199561 0.864124 0)
(0.0162528 0.611818 0)
(-0.00134009 2.24151 -8.39922e-22)
(0.015658 2.0159 0)
(-0.00211707 2.24339 -3.10009e-20)
(0.00759618 2.01973 4.88959e-20)
(0.000298181 0.84046 0)
(0.000638533 0.824289 0)
(0.00943312 0.575331 0)
(-0.00304239 0.80023 0)
(0.00158977 0.509741 0)
(0.938144 0.00971967 0)
(0.84977 -0.0147103 0)
(0.927394 0.000371917 0)
(0.842321 -0.0129238 0)
(0.812236 -0.00155773 0)
(0.899185 0.0218858 0)
(0.872731 0.0275536 0)
(0.788658 -0.00517769 0)
(0.00578709 3.06494 -8.52105e-21)
(0.0166929 3.05769 0)
(0.0147071 2.96903 0)
(0.00872074 2.87621 0)
(0.921183 3.95624 0)
(1.23473 3.28966 9.27505e-19)
(0.0693429 3.07016 0)
(-0.0290026 2.90262 0)
(-0.0080779 1.39415 0)
(-0.0306966 1.69449 0)
(-0.0172366 1.5288 0)
(-0.0299507 2.55395 -7.98122e-21)
(-0.0136761 2.24387 0)
(-0.0193934 2.392 0)
(-0.00189538 1.94568 8.91726e-22)
(-0.00349365 2.23886 -5.72052e-21)
(-0.00540234 2.20088 -1.80367e-21)
(-0.00990708 1.93138 0)
(0.407187 0.125829 5.39162e-19)
(0.356778 0.0150211 -5.29094e-19)
(0.259048 1.58513 0)
(0.277018 0.754751 -3.15636e-19)
(0.177145 1.67236 -1.04893e-18)
(0.226099 1.21884 1.05125e-18)
(0.902034 0.00637912 0)
(0.967405 0.0111221 0)
(0.97455 0.0108084 0)
(0.923312 0.00641901 0)
(-0.00778719 0.795574 0)
(-0.0091836 0.794629 0)
(0.00571087 0.500989 0)
(0.139809 0.110363 6.1601e-19)
(0.120522 0.0999522 -7.27284e-19)
(0.101053 0.0760976 0)
(1.09741 0.085782 2.71413e-20)
(1.07953 0.0391927 0)
(1.01214 0.0397931 0)
(0.906479 -0.00570003 0)
(0.456959 0.105438 0)
(0.516288 0.0867978 -2.4586e-18)
(0.40139 0.0103351 9.19372e-19)
(0.00878416 2.98123 7.2079e-19)
(-0.032244 2.86573 4.79313e-20)
(0.00358276 3.05027 -1.80414e-20)
(0.020209 3.04334 6.41389e-19)
(-0.0150073 2.99658 2.99462e-20)
(-0.0129276 2.94945 -1.20515e-22)
(-0.0172585 3.01195 -5.54281e-19)
(0.0148499 3.02385 4.013e-19)
(0.00737358 3.03682 -6.35359e-19)
(0.933873 -0.00124895 0)
(0.939385 -0.00323149 0)
(0.845835 -0.0094586 0)
(0.956539 0.0119032 0)
(0.942676 0.0132389 0)
(0.881589 0.00586581 0)
(0.916819 0.0173794 0)
(0.925869 0.015058 0)
(0.838511 0.00229486 0)
(0.717072 1.40425 4.12101e-20)
(0.750394 1.51297 0)
(0.181954 0.31603 7.0569e-20)
(0.227928 0.668567 5.6826e-19)
(0.262317 0.720731 -3.31896e-19)
(0.263505 0.522583 6.60256e-19)
(0.345552 0.810164 1.58988e-18)
(0.140062 0.229809 3.75419e-19)
(0.273752 0.154305 7.29974e-19)
(0.237439 0.149252 1.89334e-19)
(0.214912 0.0638437 3.59269e-19)
(1.1751 0.462664 6.08159e-20)
(1.19107 0.256093 5.61527e-20)
(0.0099167 2.23653 2.53531e-19)
(0.0403936 1.94698 0)
(0.970046 0.0292068 0)
(0.942926 0.0138027 0)
(0.86849 -0.0179784 0)
(0.0112551 3.07417 0)
(0.0196764 2.94416 1.17449e-18)
(0.0164218 2.95626 0)
(0.00644773 2.85052 -1.16486e-18)
(0.00640123 3.09164 2.84929e-19)
(0.00713681 3.08251 0)
(0.783249 1.81456 -1.59361e-19)
(1.24259 2.49036 4.05368e-19)
(0.765233 1.95392 -1.23158e-18)
(0.0196 2.9805 -6.20549e-19)
(0.0352143 2.99931 0)
(-0.034624 2.87648 0)
(-0.00421635 2.22243 -1.31372e-20)
(-0.0031587 2.24351 7.61477e-21)
(0.000830233 1.98106 -7.29675e-21)
(0.278125 1.39406 1.02491e-18)
(0.237876 0.548582 -7.02784e-19)
(0.0637132 1.99847 7.63072e-19)
(0.135371 1.88464 -9.10711e-19)
(0.180321 1.51086 9.49045e-20)
(0.00477055 3.11795 -1.65121e-18)
(0.0151877 3.11832 1.77623e-18)
(-0.00926078 2.98057 7.9131e-19)
(-0.00361642 2.97717 -7.4867e-19)
(-0.02138 2.8811 -8.0593e-19)
(0.0085977 3.09862 -2.11648e-18)
(0.0018055 3.10682 2.08442e-18)
(0.281605 0.694844 0)
(0.248263 0.684095 -1.1807e-18)
(0.0958807 0.225333 5.24261e-19)
(0.357247 0.936951 1.11213e-18)
(0.195145 0.275616 -1.71462e-18)
(1.18334 0.17441 6.35195e-20)
(1.19156 0.310624 0)
(1.17171 0.122293 -7.24035e-21)
(0.00112174 2.25393 -1.48302e-21)
(0.00453107 2.24578 0)
(0.0245801 1.98211 0)
(0.34012 1.3029 -3.68076e-19)
(0.374348 1.14885 -7.998e-19)
(0.209702 0.37724 1.42584e-18)
(1.00588 -0.0108342 0)
(1.00767 -0.00763702 5.06109e-19)
(-0.0210641 1.32487 0)
(-0.0361985 1.32249 0)
(1.00221 0.00351171 1.80966e-21)
(1.00366 0.00946547 1.03332e-18)
(-0.0180175 2.53841 1.01133e-20)
(-0.0236326 2.58118 0)
(0.0345328 3.17719 4.09561e-19)
(0.391073 3.48485 0)
(1.17251 0.661363 -5.86418e-20)
(1.01286 0.0131308 -2.139e-21)
(1.02133 -0.0103041 0)
(1.0017 0.000126783 7.81104e-23)
(0.108754 1.36563 0)
(0.144184 2.57147 0)
(0.0246958 1.30771 0)
(-0.000925877 2.62343 2.8969e-20)
(-0.02198 2.5804 4.77485e-21)
(0.998945 0.0269231 1.81605e-21)
(1.06295 0.00457125 0)
(1.0973 0.0249271 0)
(-0.0290651 1.737 0)
(-0.018827 2.58168 0)
(-0.00484003 1.30822 0)
(0.312728 1.47927 -1.69041e-19)
(1.0113 -0.00962147 0)
(1.0094 -0.0149185 0)
(1.00237 0.000749836 6.4681e-19)
(1.00547 -0.00480312 -7.6019e-19)
(1.00118 -0.000973782 0)
(-0.0139417 1.46027 0)
(-0.00673158 1.37207 0)
(-0.0072949 1.41801 0)
(-0.00856034 1.29621 0)
(-0.0169566 1.28412 0)
(-0.0088888 1.26566 0)
(1.03498 -0.00608254 0)
(1.0198 0.0156209 -8.42165e-22)
(0.820341 1.27316 2.59382e-19)
(1.00223 0.000316471 -6.4422e-19)
(1.00406 0.00525796 7.54306e-19)
(1.00118 0.00207314 0)
(1.01274 0.0103511 6.41191e-19)
(1.00799 0.00830998 -7.76904e-19)
(1.00856 0.0146942 0)
(-0.0238379 2.60958 0)
(-0.0254856 2.58887 -1.78653e-20)
(-0.0230411 2.60308 1.27736e-20)
(1.23632 0.266683 5.8317e-19)
(1.16154 0.086649 0)
(0.0411154 3.07825 -9.14918e-19)
(0.0646943 2.85652 -6.66133e-20)
(0.138901 3.19252 1.39767e-18)
(0.134428 3.22011 -1.98345e-19)
(0.133591 3.2312 0)
(0.0190312 3.13722 2.36244e-19)
(0.0744922 3.16031 9.02396e-19)
(0.0675074 3.18524 -4.45364e-19)
(0.0217318 3.13002 0)
(0.597195 0.279402 0)
(0.523945 0.303065 0)
(1.14341 0.697419 1.34525e-19)
(1.13781 0.818855 -1.19672e-19)
(1.20042 0.584161 0)
(1.22847 0.518938 0)
(1.01606 0.0133662 -1.19518e-18)
(1.01498 0.0142774 1.5003e-18)
(1.02536 -0.00982376 0)
(1.02343 -0.0118632 0)
(1.00642 0.00261721 0)
(1.01041 0.00373269 0)
(1.00458 0.00185932 0)
(1.00979 0.00624131 0)
(1.00781 0.00596272 0)
(1.00451 0.00471213 0)
(0.0976053 1.3636 0)
(0.092267 1.32829 0)
(0.131104 1.4026 0)
(0.148324 1.40665 0)
(0.14576 2.59638 0)
(0.18559 2.66614 -4.23687e-19)
(0.101524 2.65203 0)
(0.0851934 2.65485 1.97947e-19)
(0.0383293 2.67774 -1.49125e-19)
(0.0166501 1.31906 0)
(0.0222226 1.24446 0)
(0.0193032 1.32914 0)
(0.0337264 1.26723 0)
(0.00290089 1.98416 2.07431e-21)
(-0.0207398 2.60819 -1.72455e-20)
(-0.00906186 2.66485 1.46607e-20)
(-0.0189759 2.68361 0)
(-0.0235521 2.61401 -7.6984e-21)
(-0.0237289 2.60885 1.13507e-20)
(0.0117914 1.98268 1.1781e-21)
(-0.00753114 2.39622 2.3138e-20)
(-0.0137081 2.4182 -1.66268e-20)
(1.00896 0.0383462 1.21125e-18)
(1.0053 0.0164369 -1.51002e-18)
(1.00278 0.0459388 -1.23388e-18)
(0.976527 0.0326121 1.5521e-18)
(1.06418 0.00837325 0)
(1.04932 -0.00829002 0)
(1.0943 0.0350698 0)
(1.07428 0.0129058 0)
(1.07209 0.000498699 0)
(1.14025 0.0828901 0)
(1.11169 0.044482 0)
(1.11536 0.0323755 0)
(-0.0255197 2.43098 8.93168e-22)
(-0.0142792 2.01177 0)
(-0.016704 2.2153 0)
(-0.0206683 2.6024 -1.02297e-20)
(-0.0179128 2.61236 1.62698e-22)
(0.00297912 1.57106 -3.43543e-20)
(-0.00543914 1.49963 3.4993e-20)
(-0.0147009 1.38869 0)
(-0.0182582 1.39534 0)
(-0.0231451 1.39012 0)
(-0.00325013 1.30919 0)
(0.00800296 1.23659 0)
(0.387299 1.49685 2.75105e-19)
(0.43026 1.49767 1.44876e-19)
(0.597673 2.44552 -2.40227e-19)
(0.398861 2.54274 7.0715e-19)
(0.350371 2.05512 7.13863e-20)
(1.02106 -0.00812104 0)
(1.0155 -0.00975141 0)
(1.01492 -0.0155042 0)
(1.00741 -0.00108726 0)
(1.00493 -0.000913635 0)
(1.00778 -0.00469635 0)
(1.00927 -0.00362006 0)
(1.01422 -0.00438323 0)
(1.02055 0.0163058 1.17082e-18)
(1.0177 0.0155621 -1.49741e-18)
(1.02084 0.0183157 -1.17967e-18)
(1.01845 0.0163613 1.47968e-18)
(0.783928 1.32423 0)
(0.720687 1.37419 2.45787e-19)
(0.895125 1.22351 9.66496e-20)
(0.940774 1.16832 -1.28583e-19)
(1.15484 2.60054 2.76436e-19)
(0.771796 0.122162 5.98977e-19)
(1.16332 0.108588 0)
(1.21187 0.193999 -4.69183e-19)
(1.19886 0.155022 -1.99481e-20)
(1.00637 0.156152 0)
(0.130168 2.95895 5.32455e-19)
(0.106689 2.86521 -1.15911e-18)
(0.0156137 2.37399 7.75717e-19)
(0.0937454 -0.136155 -3.34095e-19)
(0.336146 3.41485 -2.14931e-19)
(0.191599 3.30927 0)
(0.235008 3.34998 2.79917e-19)
(0.240447 3.03145 -1.77767e-18)
(0.333647 3.18956 0)
(0.00562457 3.1211 4.61411e-20)
(0.0163313 3.12963 -5.42847e-19)
(0.014272 3.12572 7.98959e-19)
(0.0343745 3.13995 0)
(0.0326946 3.15027 0)
(1.21095 2.5983 0)
(0.544044 0.809218 -5.28338e-19)
(1.0642 0.992165 -6.85123e-21)
(0.998519 1.07727 0)
(0.851662 0.973494 -1.10371e-19)
(1.08909 0.8933 2.80399e-20)
(0.320431 0.344221 -8.63117e-19)
(0.663105 0.321543 -1.76593e-20)
(0.577396 0.222167 4.09762e-19)
(0.550674 0.339858 3.02169e-20)
(0.443529 0.28416 -1.2144e-18)
(0.625391 0.323816 0)
(0.705744 0.420551 6.98574e-19)
(0.710479 0.423403 0)
(0.588211 0.339368 0)
(0.524887 0.248434 0)
(0.821769 0.621803 4.12933e-19)
(1.23731 0.288948 -4.9112e-19)
(1.23698 0.427264 0)
(1.24558 0.368086 0)
(0.695955 0.195301 6.19932e-19)
(0.869899 0.550632 -3.78868e-19)
(0.767107 0.52096 6.73367e-19)
(0.96115 0.443193 -7.39828e-19)
(1.01927 0.0149299 8.02922e-19)
(1.01761 0.0143368 -8.08202e-19)
(1.0159 0.0154023 0)
(1.03645 -0.00562254 0)
(1.02988 -0.00839069 -7.5701e-19)
(1.02792 -0.0119723 7.49484e-19)
(1.02487 0.0104416 0)
(1.02339 0.0141742 0)
(1.01142 0.00414669 0)
(1.01421 0.00913797 0)
(1.01515 0.00415022 0)
(1.01426 0.00287744 0)
(0.0647062 1.34668 0)
(0.0687612 1.29544 0)
(0.146925 1.38513 1.22794e-20)
(0.28288 1.47765 9.07448e-20)
(0.177339 1.44891 1.91591e-19)
(0.210509 1.45368 -3.119e-19)
(0.173032 1.4096 0)
(0.136951 1.60026 -7.11905e-20)
(0.119373 1.57822 0)
(0.347232 2.00534 -1.03795e-19)
(0.34282 2.34067 6.15028e-19)
(0.194302 1.46319 6.2053e-20)
(0.268716 1.39584 2.38713e-20)
(0.203025 1.38765 -1.93107e-20)
(0.279169 1.33891 -1.02325e-19)
(0.244189 1.58071 0)
(0.26799 1.6179 1.11751e-19)
(0.0309203 2.26254 -2.87222e-20)
(0.0434509 2.667 0)
(0.0665694 2.3988 1.34081e-19)
(0.0631251 2.41968 0)
(0.0694708 2.66852 -2.1936e-19)
(0.0489219 2.697 0)
(0.0263258 1.42915 3.05314e-20)
(0.0340136 1.48123 0)
(0.0282815 1.39694 0)
(0.0231253 1.40109 -3.44504e-20)
(-0.000114828 2.6511 -1.72728e-20)
(0.0293081 2.69634 1.67413e-19)
(0.00981078 2.72121 1.18253e-21)
(0.00280455 1.83459 -1.46761e-21)
(-0.00289412 1.68737 -2.66821e-21)
(0.0138847 1.29954 0)
(0.0212467 1.22188 0)
(0.046608 1.58964 -2.68638e-20)
(0.0298528 1.46292 -3.2762e-20)
(0.0361715 1.52774 4.10401e-20)
(0.0399156 1.61388 0)
(-0.0293993 2.27038 9.38843e-20)
(-0.0304726 2.54942 -3.94517e-20)
(-0.0162219 2.44686 3.60846e-21)
(-0.00356277 1.85088 1.77815e-21)
(-0.0255026 2.49891 1.40252e-21)
(-0.0207078 2.44237 2.65623e-21)
(1.01866 0.0212131 -8.03778e-19)
(1.01421 0.0275369 8.0278e-19)
(1.01347 0.0173568 0)
(1.0114 0.0712619 1.12533e-18)
(0.991578 0.058581 -1.26297e-18)
(0.950209 0.0543596 1.41144e-18)
(1.01396 0.112524 -1.50348e-19)
(1.04287 -0.00562243 0)
(1.05124 -0.00126596 7.21979e-19)
(1.03914 -0.00979107 -7.23475e-19)
(1.07165 0.0427138 -4.29327e-20)
(1.06482 0.0240364 3.70212e-19)
(1.06343 0.056836 0)
(1.05372 0.0502535 -1.33146e-19)
(1.03258 0.0432921 0)
(1.02559 0.0397807 0)
(1.02783 0.0135313 0)
(1.02383 0.0161749 0)
(1.04019 0.0327704 2.74285e-19)
(1.03912 0.0277662 -6.06515e-19)
(1.05114 0.0344683 -2.9064e-19)
(1.04829 0.0345019 -3.20192e-19)
(1.07146 0.0651174 6.24411e-19)
(1.09692 0.0527653 0)
(1.10573 0.0968324 0)
(-0.025091 2.27549 5.24912e-20)
(-0.0238976 2.01761 6.36627e-22)
(-0.020133 2.02497 0)
(-0.0267343 2.44476 -5.22554e-20)
(-0.0214347 2.40057 -1.48739e-21)
(-0.0329291 2.47233 5.09316e-21)
(-0.0209631 2.62149 -1.03573e-20)
(-0.0230216 2.5631 -5.00926e-23)
(-0.0213558 2.51467 -2.59062e-21)
(-0.0160377 2.61537 9.55035e-21)
(-0.0211094 2.61736 -1.00707e-20)
(-0.00551772 1.49202 -5.58114e-22)
(0.00386039 1.61962 -3.20935e-20)
(0.372556 1.44496 -1.16462e-19)
(0.372019 1.38138 3.55958e-20)
(0.661409 1.42461 -2.37721e-19)
(0.529279 1.49076 -1.4253e-19)
(0.587559 1.4569 0)
(0.593505 2.42245 2.06971e-19)
(0.661784 2.41758 3.37558e-19)
(0.411421 2.5123 8.76845e-20)
(0.402849 2.53679 -6.09727e-19)
(0.510593 2.47814 6.13626e-19)
(0.553359 2.4593 0)
(0.488335 2.51689 -5.59457e-19)
(0.248741 2.58965 1.14414e-18)
(0.354973 2.56156 -7.76909e-20)
(0.284252 2.65133 -1.58696e-18)
(0.947974 2.37528 7.26534e-19)
(0.838244 2.38047 0)
(1.01106 0.000517284 2.62369e-20)
(1.01534 -0.00538686 -2.12848e-20)
(1.01767 -0.0034991 -3.88754e-19)
(1.01502 -0.000858776 3.90813e-19)
(1.01244 0.00123385 0)
(0.646952 1.28932 0)
(0.669019 1.18395 0)
(0.782609 1.10307 0)
(0.661952 1.1472 0)
(1.18488 2.61412 5.97835e-20)
(1.07297 2.36124 0)
(0.834706 2.16709 3.82243e-21)
(0.8241 2.43216 0)
(0.922009 2.52568 -4.21534e-19)
(0.957237 2.4818 2.80418e-19)
(0.799687 0.181494 0)
(0.746197 0.154713 1.62632e-19)
(0.910527 0.151299 9.46553e-19)
(0.826187 0.155206 -3.54994e-19)
(0.782551 0.0906413 -1.09276e-18)
(1.08188 0.240042 -8.92808e-19)
(0.999259 0.301941 -1.71761e-20)
(0.929508 0.305331 8.61024e-19)
(1.00787 0.23255 7.2124e-19)
(0.949345 0.197333 -1.25318e-18)
(0.912603 0.201738 1.56715e-19)
(0.951594 0.267214 -3.32502e-19)
(0.928006 0.228519 0)
(0.995567 0.193524 6.17993e-19)
(1.04724 0.193253 0)
(1.04475 0.22133 0)
(1.1072 0.120777 2.89883e-19)
(1.07132 0.180224 -1.49563e-20)
(1.07553 0.240224 -1.57785e-19)
(1.10179 0.20642 0)
(1.02332 0.0469347 6.17215e-19)
(1.03931 0.0602116 7.71444e-19)
(1.03444 0.046133 -6.12326e-19)
(1.04328 0.0675777 -5.17046e-19)
(1.02127 0.0757659 -7.92487e-19)
(0.986571 0.160338 0)
(0.992631 0.106239 0)
(0.964585 0.0718595 -5.01661e-19)
(0.906209 0.0974341 1.99278e-19)
(1.03972 0.107496 7.15803e-19)
(1.06955 0.124325 -8.36129e-19)
(1.07596 0.15666 7.46654e-19)
(1.03072 0.149215 0)
(1.07532 0.111837 0)
(1.05491 0.0930193 -3.4266e-19)
(1.04341 0.0968871 -5.84765e-19)
(0.578746 1.0576 1.39162e-19)
(0.605281 1.38452 -4.07191e-20)
(1.15472 2.73007 -2.2618e-19)
(1.22055 3.07226 1.62363e-21)
(1.2466 2.71301 -1.21823e-19)
(1.2753 2.69635 -3.29446e-20)
(1.20281 2.33668 -1.09868e-20)
(1.20817 2.97613 -9.22749e-20)
(1.2282 2.94157 2.32643e-19)
(1.21084 3.22521 -1.43556e-19)
(1.37065 2.95621 1.98388e-19)
(1.35958 2.87432 0)
(0.560123 0.817814 -5.01751e-20)
(0.113862 1.23004 5.69249e-19)
(0.552586 0.371762 5.6298e-19)
(0.390786 0.118848 6.13535e-19)
(0.485162 0.324503 6.87475e-19)
(0.543116 0.440127 -1.10846e-18)
(0.545366 0.437019 9.06988e-19)
(0.469962 0.329653 -3.44445e-19)
(0.354812 0.258802 7.81491e-19)
(0.71678 0.267394 -3.5777e-19)
(0.677411 0.291054 0)
(0.626161 0.208166 7.10748e-21)
(0.740257 0.505617 3.67843e-19)
(0.7161 0.476437 -1.33855e-18)
(0.620133 0.448636 1.19943e-20)
(0.620198 0.438407 0)
(0.689385 0.719439 3.97325e-19)
(0.850367 0.777639 3.9647e-19)
(0.774468 0.860811 -4.63891e-19)
(0.897086 0.8155 -1.55386e-19)
(0.928615 0.860513 -3.7623e-20)
(0.935688 0.860432 3.85281e-20)
(0.863407 0.656924 -6.8377e-19)
(0.943639 0.71089 1.44308e-19)
(1.00348 0.726736 0)
(0.994356 0.703381 -1.9518e-19)
(1.02872 0.341953 2.12956e-19)
(1.14849 0.304907 2.88856e-19)
(1.06959 0.277239 3.64966e-19)
(1.01754 0.37426 -4.31821e-19)
(1.06613 0.436753 0)
(1.12194 0.420064 0)
(0.923694 0.377466 2.15127e-21)
(0.841198 0.31321 0)
(0.884979 0.30926 4.06645e-19)
(0.911047 0.313571 -7.49324e-21)
(0.954959 0.446311 2.06099e-18)
(0.915209 0.501513 5.31108e-19)
(0.920791 0.46863 -5.65741e-19)
(0.838058 0.454115 6.06561e-19)
(0.821375 0.446444 3.63665e-19)
(0.791336 0.428735 -3.5774e-19)
(1.02737 -0.000240977 6.47572e-19)
(1.01999 5.92107e-05 0)
(1.01852 0.000986897 4.2225e-19)
(1.02173 -0.00155583 -9.56513e-19)
(1.02235 0.00447752 4.64673e-19)
(1.02032 0.0114914 -9.7306e-19)
(1.02123 0.0108582 0)
(1.02048 0.0110749 -2.02808e-19)
(1.01594 0.00783084 5.08793e-19)
(1.01661 0.010611 -2.53878e-19)
(1.01731 0.00996123 1.86965e-19)
(0.0272055 1.32094 0)
(0.0336863 1.37059 0)
(0.0432269 1.32242 0)
(0.0475324 1.2734 0)
(0.0718856 1.39528 -5.15573e-20)
(0.0788066 1.36332 2.25889e-20)
(0.117865 1.53973 -1.22787e-20)
(0.101257 1.38645 -7.62748e-21)
(0.0351308 1.46865 1.57311e-20)
(0.0391648 1.46243 -1.20019e-20)
(0.0630561 1.38027 -9.14945e-21)
(0.0545834 1.38128 4.50605e-20)
(0.0474065 1.35594 6.60769e-21)
(0.038513 1.37858 3.38248e-21)
(0.107951 2.36777 -1.47989e-19)
(0.0968875 2.41551 0)
(0.171728 2.04252 1.07448e-19)
(0.114147 1.70911 3.83652e-20)
(0.234467 2.03697 -8.95209e-20)
(0.201507 2.42808 0)
(0.263374 2.37797 -6.04949e-19)
(0.303585 2.37559 4.27609e-19)
(0.230873 1.99786 -2.48124e-19)
(0.156233 2.15689 1.69357e-19)
(0.142376 2.2642 0)
(0.0182262 1.87951 5.98483e-21)
(-0.000346166 2.3929 -3.48711e-20)
(0.00576738 2.14988 0)
(0.0111834 2.45568 -1.36047e-20)
(0.0282283 2.29939 8.67458e-21)
(0.0155054 1.40944 -6.43756e-21)
(0.0142589 1.39339 1.08791e-19)
(0.0137599 1.39917 -3.56445e-20)
(0.0207356 1.40164 -3.06053e-20)
(0.0250306 1.43288 0)
(0.00981763 1.38098 0)
(0.00195478 1.29467 -4.3599e-20)
(0.00604564 1.37257 1.22142e-20)
(0.00939231 1.37279 0)
(0.00864854 1.28786 -3.28996e-20)
(0.017935 1.213 6.67472e-20)
(1.04077 0.0120232 0)
(1.04694 0.00826208 -6.7738e-20)
(1.03864 0.022103 -4.88982e-19)
(1.0484 0.020973 0)
(1.05241 0.0208661 0)
(1.03632 0.0122226 -6.82138e-21)
(1.03096 0.0120414 7.85918e-19)
(1.03167 0.0169995 9.52747e-19)
(1.02544 0.0208837 0)
(1.0222 0.0212417 0)
(1.03513 0.025886 4.87687e-19)
(1.02548 0.0275202 0)
(1.02354 0.027654 0)
(-0.0184617 2.02239 0)
(0.00108118 1.65024 -4.35717e-21)
(-0.00482057 1.75848 -2.99986e-20)
(-0.000129159 1.38255 0)
(-0.00684552 1.55048 -1.70349e-20)
(-0.00817595 1.45991 1.09791e-20)
(-0.00368473 1.39581 0)
(0.389654 1.64668 0)
(0.374821 1.30852 -7.03539e-20)
(0.302137 1.34268 0)
(0.42744 1.30628 5.5577e-21)
(0.477038 1.46818 0)
(0.457541 1.4134 2.55245e-20)
(1.03656 2.67627 -1.53588e-20)
(0.968477 2.40407 -9.13154e-19)
(0.921484 2.1921 1.02468e-18)
(0.852241 2.37237 2.42007e-19)
(0.847953 2.48608 0)
(0.917755 2.48223 0)
(0.931317 2.36884 0)
(0.910255 2.35797 -9.4406e-19)
(0.687389 2.45032 -3.9424e-19)
(0.800398 2.43986 -9.76293e-20)
(0.810731 2.41395 7.4195e-20)
(0.695724 2.39072 0)
(0.800871 2.38592 0)
(0.759077 2.39935 -3.6863e-19)
(0.767919 2.47597 0)
(0.627672 1.09362 0)
(0.48055 0.903486 -5.09164e-19)
(0.564546 0.94615 -3.22532e-20)
(0.519115 1.03632 0)
(0.519465 0.980518 7.62841e-19)
(0.795183 0.883804 -1.30341e-19)
(0.806029 1.02043 0)
(0.780943 0.986841 1.8643e-19)
(0.663677 1.0338 0)
(0.665425 0.936138 0)
(1.16373 2.75293 -2.29298e-19)
(1.14116 2.81629 -9.66936e-20)
(0.929352 2.33123 9.96513e-20)
(0.897205 2.31051 -8.31083e-20)
(1.12928 2.72589 0)
(1.0831 2.69537 9.99886e-20)
(1.08926 2.47924 -3.1356e-19)
(0.98376 2.23195 -3.04159e-20)
(0.492832 1.33262 0)
(0.508153 1.06211 -1.22662e-19)
(0.575396 1.16747 0)
(0.854831 0.247108 0)
(0.764618 0.196435 0)
(0.681834 0.155506 0)
(0.845673 0.24896 -6.40065e-19)
(0.737956 0.239599 3.73213e-19)
(0.922886 0.0877971 -4.1118e-19)
(0.929933 0.131683 0)
(0.916303 0.140707 1.77272e-19)
(0.851966 0.118688 7.09265e-19)
(0.816206 0.0789585 -4.44816e-19)
(1.15632 3.35024 -7.19598e-19)
(1.20519 3.2697 0)
(1.15397 3.3791 -1.48968e-18)
(0.642176 3.54051 1.26422e-18)
(0.864336 3.10911 7.31132e-20)
(0.520861 0.807388 6.03955e-19)
(0.424885 0.804153 0)
(0.312261 0.402991 -1.49343e-19)
(0.469264 0.655053 8.57455e-19)
(0.555462 0.374756 -1.97869e-19)
(0.513374 0.471146 2.32156e-19)
(0.672009 0.513693 4.96547e-19)
(0.709686 0.549386 0)
(0.660228 0.58077 0)
(0.623332 0.529991 0)
(1.00512 0.613108 8.97199e-20)
(0.920141 0.551311 -5.17056e-19)
(0.945364 0.583319 3.8996e-19)
(0.976836 0.522862 -3.99888e-19)
(1.08414 0.493153 0)
(1.09265 0.583441 -9.77074e-20)
(0.858455 0.407129 -8.32978e-19)
(0.858005 0.396451 -1.0331e-18)
(0.794768 0.391167 6.49247e-19)
(0.804092 0.368298 -6.59817e-19)
(0.846314 0.331748 -5.20736e-19)
(0.794929 0.333095 6.37385e-19)
(1.02667 0.00604345 -4.93703e-19)
(1.02637 0.00626582 1.00387e-18)
(1.02943 0.000203163 6.27545e-19)
(1.03365 0.00111386 -7.55761e-19)
(1.03378 0.00924284 0)
(1.03004 0.00994098 -1.23068e-18)
(0.0639812 1.64462 1.95093e-20)
(0.0486346 1.58828 0)
(0.0891076 1.69481 1.174e-19)
(0.0989802 1.67668 -1.02963e-19)
(0.0918882 1.54709 2.30086e-20)
(0.0914459 1.54198 0)
(0.010982 1.68341 0)
(-0.00378857 1.48988 6.46327e-21)
(-0.00201975 1.43575 -5.81289e-21)
(-0.00733003 1.54714 5.40858e-21)
(0.00155966 1.8831 9.63376e-21)
(-0.0103176 1.93616 -1.13527e-21)
(0.497219 1.35907 -2.74921e-19)
(0.490735 1.35998 3.0199e-19)
(0.4541 1.30155 -3.05509e-20)
(0.43715 1.28591 7.73695e-21)
(0.639127 1.30719 0)
(0.555548 1.397 1.05438e-19)
(0.570646 1.40462 -1.02637e-19)
(0.467826 1.28992 2.97546e-20)
(0.521353 1.24068 0)
(0.572945 1.20317 0)
(0.654388 2.40994 5.79141e-19)
(0.669858 2.45127 1.26003e-18)
(0.714315 2.46198 -8.68163e-19)
(0.610577 2.43606 -2.01874e-19)
(0.560442 2.52634 2.83573e-19)
(0.509625 2.50105 -7.56513e-19)
(0.978275 2.37546 -5.73399e-19)
(1.0126 2.38767 0)
(0.925793 2.17007 -6.59442e-19)
(1.05402 2.6744 0)
(1.0563 2.661 0)
(0.600634 2.25967 -1.23497e-19)
(1.03747 3.15493 1.31373e-19)
(0.908519 3.02536 -3.51551e-20)
(0.266667 0.857315 0)
(0.295049 0.703231 -3.1694e-19)
(0.463911 0.662299 -3.18227e-19)
(0.380327 2.00437 0)
(0.462566 2.77965 -5.0894e-20)
(0.416653 2.54226 0)
(0.711473 0.669243 -8.39901e-19)
(0.794857 0.683125 1.12847e-18)
(0.816119 0.625343 -1.11508e-18)
(0.69003 0.632544 -1.07893e-19)
(0.744768 0.589068 -4.42983e-19)
(1.00103 2.75463 -9.99112e-20)
(1.04137 2.81519 -1.63119e-19)
(0.633021 2.12551 6.89563e-19)
(0.585915 1.69329 -4.91398e-19)
(0.694472 1.89142 -4.04783e-19)
(0.987069 2.43833 -1.12963e-19)
(0.993809 2.43146 2.94705e-19)
(0.651231 1.82603 2.81121e-20)
(0.442267 1.31348 1.43662e-19)
)
;

boundaryField
{
    wall-4
    {
        type            noSlip;
    }
    velocity-inlet-5
    {
        type            fixedValue;
        value           uniform (1 0 0);
    }
    velocity-inlet-6
    {
        type            fixedValue;
        value           uniform (0 3 0);
    }
    pressure-outlet-7
    {
        type            zeroGradient;
    }
    wall-8
    {
        type            noSlip;
    }
    frontAndBackPlanes
    {
        type            empty;
    }
}


// ************************************************************************* //
