/*--------------------------------*- C++ -*----------------------------------*\
| =========                 |                                                 |
| \\      /  F ield         | OpenFOAM: The Open Source CFD Toolbox           |
|  \\    /   O peration     | Version:  4.0                                   |
|   \\  /    A nd           | Web:      www.OpenFOAM.org                      |
|    \\/     M anipulation  |                                                 |
\*---------------------------------------------------------------------------*/
FoamFile
{
    version     2.0;
    format      ascii;
    class       volScalarField;
    location    "11";
    object      p;
}
// * * * * * * * * * * * * * * * * * * * * * * * * * * * * * * * * * * * * * //

dimensions      [0 2 -2 0 0 0 0];

internalField   nonuniform List<scalar> 
918
(
0.224106
0.927534
0.00714439
0.223079
0.000226052
0.895097
-0.83855
0.408808
0.203336
-0.133467
0.0200556
0.194245
0.756326
0.523684
-1.44841
0.0161163
0.358855
-0.643416
0.201968
0.00571196
0.506507
0.210015
0.21342
0.204168
0.261478
0.523907
0.636571
0.00165968
-0.00122519
-0.00040315
0.00295854
-0.00286304
0.00519587
0.77845
0.829072
0.851691
0.172465
0.0687815
-0.667693
-0.768743
-0.727565
-0.8883
0.393058
0.401467
-0.499726
0.407151
0.423225
0.191946
0.202827
0.203819
0.204858
0.203921
0.205605
0.311507
-0.149518
-0.206794
-0.0805347
-0.0565706
0.0841188
0.0182077
0.0134655
0.0226442
0.0235013
0.13364
0.191333
0.188849
0.197496
0.20782
0.86629
0.837397
0.862968
0.779955
0.794681
0.733941
0.705672
0.543839
0.564867
0.510394
0.498361
-1.86852
-2.82449
-0.864288
-0.602547
0.00176684
0.0224428
0.0281639
0.340083
0.350192
0.352679
0.368767
0.82502
-0.570937
-0.778865
0.201906
0.200248
0.209884
0.210332
0.207704
0.205631
0.0140989
0.0191144
-0.00539833
0.00510493
0.00289334
0.474719
0.466919
0.20586
0.202384
0.215121
0.23882
0.224607
-0.0218773
0.271721
0.303209
0.312044
0.496543
0.499124
0.504569
0.610926
0.573747
0.674056
0.697673
0.00858555
0.00230364
0.0128203
0.00788195
0.0111639
0.170868
0.166164
0.185232
0.174818
0.177447
-0.0207067
-0.157918
0.172709
0.199384
-0.58896
-0.674071
-0.70228
-0.776034
-0.894696
0.140833
0.382608
0.388979
-0.506505
-0.424198
-0.584415
-0.341526
-0.425968
0.177983
0.188574
0.182051
0.199275
0.194569
0.195427
0.207024
0.204163
0.205637
0.348099
0.417849
0.266066
0.242031
-0.397522
-0.256373
-0.414252
-0.0290944
-0.0211434
0.0943856
0.114084
0.0782849
0.0734983
-0.00759805
0.00908598
-0.00310451
0.0259085
0.0276699
0.127802
0.11858
0.142707
0.149672
0.18469
0.18415
0.186821
0.185501
0.656327
0.678899
0.686829
0.660211
-3.83432
-6.87522
-0.274548
-0.124798
0.00122317
0.00244866
0.00101253
0.00298222
0.00376787
0.000929011
0.0443669
0.0398141
0.0324018
0.0366415
0.327462
0.333998
0.790677
0.870885
0.731939
0.728683
0.189433
0.192963
0.197412
0.191799
0.0259822
0.0207102
0.0259328
0.421712
0.444796
0.442948
-0.0585297
-0.148183
0.0273653
0.0529551
0.316561
0.301649
0.323219
0.378656
0.415357
0.704308
0.722154
0.722252
0.729942
0.774879
0.7876
0.753582
0.154743
0.163598
0.159869
0.188088
0.186324
0.186534
0.182037
0.183831
0.182205
-0.32909
-0.683208
0.167653
0.251357
0.259742
0.239702
0.26747
0.415637
0.361518
0.373985
0.381823
-0.275696
-0.353234
0.209854
0.184851
0.078682
0.105788
0.0909058
0.627097
0.588669
0.638316
0.611637
0.571684
0.59792
-0.727705
-1.96864
-1.22328
0.250746
0.0512173
0.144437
0.065041
0.0493408
0.0536479
0.798693
0.855798
0.464844
0.611659
0.578915
0.457281
0.490137
0.547784
0.468416
0.505064
0.542407
0.522513
0.0160002
0.0632457
-0.0191007
0.4832
0.672197
-0.163413
-0.206315
-0.282361
0.124809
0.159022
0.141356
0.834422
0.653051
0.810536
0.201556
0.20216
0.0101294
0.0158106
0.205809
0.2065
0.00606063
0.00900954
0.125756
-1.1624
-0.183968
0.192269
0.184348
0.201392
-0.115387
0.317644
0.0211724
0.0929731
0.0598119
0.190552
0.144503
0.108955
0.00702118
0.019664
0.0138404
-0.466703
0.198739
0.197194
0.200769
0.202395
0.202869
0.00935878
0.00977948
0.00574722
0.012212
0.00918061
0.0081047
0.171401
0.182705
-0.526966
0.201147
0.203019
0.203032
0.195276
0.201997
0.199542
0.0165797
0.0120467
0.0133223
-0.0658316
0.0453172
0.391007
0.518775
0.335836
0.0994158
-0.162204
0.280846
0.352972
0.245795
0.419738
0.365293
0.390376
-0.123527
-0.280633
-0.110758
-0.169018
0.191334
0.190842
0.185607
0.177906
0.196713
0.195185
0.199147
0.196223
0.199129
0.200181
-0.0614808
-0.0683891
-0.13554
-0.21456
0.337525
0.42669
0.250798
0.259557
0.150668
0.0248196
0.0266728
0.0220542
0.0142464
0.0663366
0.0649808
0.0762054
0.079283
0.0498574
0.0472314
0.0600189
0.0592836
0.0616293
0.186255
0.185495
0.190323
0.196799
0.150724
0.15485
0.126218
0.1426
0.132591
0.0730114
0.108854
0.0879442
0.00921923
0.00987609
0.00802778
0.0249155
0.0311246
0.0158021
0.0133221
0.0139929
0.0112769
0.0118985
0.0176124
0.0223773
-0.477044
-0.573675
0.852536
0.675166
0.241337
0.188182
0.194522
0.191573
0.197384
0.199161
0.199244
0.197065
0.194165
0.182943
0.184167
0.181017
0.181327
-0.470622
-0.569463
-0.431392
-0.468683
-0.136082
0.301056
0.057259
-0.0107978
-0.00974624
0.205125
0.589999
0.396105
0.458987
0.491781
-0.704785
-0.311803
-0.631344
-0.055971
-0.259467
0.388654
0.443899
0.468139
0.410576
0.357244
-0.530487
0.177271
-0.373506
-0.337149
-0.148024
-0.240512
0.418694
0.350147
0.358424
0.378134
0.400177
0.352397
0.330727
0.327367
0.370687
0.375994
0.166573
-0.0307207
-0.0865688
-0.113276
0.331251
0.20821
0.262749
0.18344
0.185741
0.189137
0.186165
0.173407
0.179955
0.174194
0.181318
0.182935
0.192895
0.192819
0.1879
0.189282
-0.0413394
-0.029221
-0.0955879
-0.326298
-0.238498
-0.330059
-0.150105
0.126891
0.111185
0.326221
0.323663
0.090437
-0.232165
-0.155044
-0.298886
0.128998
0.0228069
0.112572
0.164339
0.177333
0.144368
0.219441
0.205912
0.0428922
0.0539209
0.0323098
0.0325296
0.1004
0.127478
0.117419
0.0502406
0.0487004
0.0263796
0.0271038
0.076397
0.0455716
0.0596641
0.0689711
0.0235889
0.0260471
0.029858
0.0438935
0.0418147
0.045055
0.181762
0.182663
0.183178
0.19247
0.204024
0.217319
0.189598
0.16741
0.160633
0.164207
0.141176
0.148226
0.146163
0.154672
0.173363
0.179526
0.179068
0.179941
0.165753
0.168353
0.156193
0.15899
0.142876
0.126432
0.114045
0.0192831
0.0133318
0.0166537
0.0167305
0.0118733
0.0130368
0.0440744
0.0347899
0.0407739
0.0354809
0.0389465
0.0182271
0.0193238
-0.449636
-0.329207
-0.541108
-0.554723
-0.601495
0.767895
0.847816
0.675772
0.495927
0.520782
0.691648
0.779555
0.445347
0.518838
0.545242
-0.0544793
0.581052
0.19463
0.19278
0.189305
0.189098
0.191362
-0.347908
-0.266912
-0.251051
-0.170026
0.0191083
0.145552
-0.103717
-0.327945
-0.14457
-0.153312
0.294803
0.312676
0.259131
0.284231
0.285973
0.123629
0.186478
0.238329
0.203478
0.241185
0.259314
0.220213
0.247854
0.205558
0.164974
0.167089
0.114732
0.125631
0.107466
0.091179
0.182654
0.162227
0.171817
0.165463
0.184718
0.213207
0.206031
0.226022
0.243557
0.172757
0.139419
0.144211
0.172959
0.137296
0.147707
0.160459
0.0365154
0.0261531
-0.013615
-0.400487
-0.293667
-0.372743
-0.407091
-0.283234
0.0269299
-0.778647
-0.803497
-1.36004
0.13971
0.653837
0.386709
0.323546
0.397472
0.367095
0.364514
0.417387
0.421895
0.319807
0.345475
0.344428
0.293902
0.318053
0.346743
0.347968
0.180108
0.0551143
0.0332754
0.0132267
-0.112294
-0.0789395
0.129559
0.0461951
-0.0215376
-0.00258493
0.152088
0.056285
0.119173
0.14146
0.0625508
0.0406251
0.221323
0.28763
0.283501
0.257664
0.17798
0.185243
0.216685
0.246828
0.271569
0.308606
0.181926
0.187659
0.188523
0.186155
0.18286
0.184717
0.184143
0.186321
0.187837
0.190929
0.189082
0.0143111
0.0230809
-0.00539451
0.000931896
0.0124823
-0.0147563
0.0420201
-0.0214184
0.0371971
0.0362851
0.00425671
-0.0107373
0.00389098
0.0198936
0.165709
0.195762
0.180612
0.125858
0.230452
0.397825
0.419376
0.374362
0.210836
0.234891
0.295346
0.0881044
0.0966617
0.0845073
0.109975
0.102588
0.0297993
0.0287333
0.0332953
0.0413546
0.039693
0.0307487
0.0246972
0.0260496
0.0292321
0.027468
0.0262941
0.169014
0.164865
0.165889
0.159797
0.158173
0.171153
0.173957
0.175258
0.179115
0.180201
0.174182
0.177251
0.179436
0.0297567
0.0238708
0.0258051
0.0249767
0.0256974
0.0217883
0.0206665
-0.565016
-0.399696
-0.330502
-0.553692
-0.507735
-0.50242
-0.0249113
-0.1838
-0.0653254
0.432938
0.188862
0.13383
0.16151
0.276035
-0.187266
0.0305105
-0.196703
0.736045
0.544535
0.741235
0.199638
-0.0575167
0.0717101
0.12902
-0.0225045
0.0184813
-0.023588
-0.103832
-0.0830912
-0.051097
0.0378673
-0.00594159
0.0765719
-0.12824
-0.101853
0.0309021
0.00613537
0.178639
0.251507
-0.195867
-0.122388
-0.229799
0.28741
0.306208
0.32208
0.295411
0.317633
0.247167
0.238821
0.258001
0.266706
0.258599
-1.10405
-0.845968
-1.73698
-1.06651
-0.643764
0.159089
0.135487
0.360721
0.275168
0.362701
0.347897
0.32097
0.288013
0.285933
0.323017
0.0514852
0.148584
0.128039
0.133137
0.0336204
-0.0182815
0.260605
0.251317
0.292963
0.314924
0.273759
0.318081
0.178626
0.179344
0.177991
0.175507
0.1723
0.173776
0.102566
0.0787815
0.116893
0.0968003
0.064569
0.0633965
0.0375661
0.0316563
0.0290647
0.0294843
0.033742
0.0387039
-0.438403
-0.527702
-0.687221
-0.680882
-0.389966
-0.517015
-0.461306
-0.686707
-0.524389
-0.389692
0.154874
0.460243
0.142473
0.586762
0.39067
0.51168
0.043017
0.233246
0.205433
0.064764
0.0277064
-0.109738
-0.618289
-0.507093
0.34881
0.393902
0.188521
0.01921
-0.270322
-0.127199
0.211295
0.144821
0.189211
0.254661
0.250829
-0.350089
-0.299269
0.0175678
0.230429
-0.0254973
-0.150338
-0.0921591
0.0284607
-0.0169054
)
;

boundaryField
{
    wall-4
    {
        type            zeroGradient;
    }
    velocity-inlet-5
    {
        type            zeroGradient;
    }
    velocity-inlet-6
    {
        type            zeroGradient;
    }
    pressure-outlet-7
    {
        type            fixedValue;
        value           uniform 0;
    }
    wall-8
    {
        type            zeroGradient;
    }
    frontAndBackPlanes
    {
        type            empty;
    }
}


// ************************************************************************* //
