/*--------------------------------*- C++ -*----------------------------------*\
| =========                 |                                                 |
| \\      /  F ield         | OpenFOAM: The Open Source CFD Toolbox           |
|  \\    /   O peration     | Version:  4.0                                   |
|   \\  /    A nd           | Web:      www.OpenFOAM.org                      |
|    \\/     M anipulation  |                                                 |
\*---------------------------------------------------------------------------*/
FoamFile
{
    version     2.0;
    format      ascii;
    class       surfaceScalarField;
    location    "11";
    object      phi;
}
// * * * * * * * * * * * * * * * * * * * * * * * * * * * * * * * * * * * * * //

dimensions      [0 3 -1 0 0 0 0];

internalField   nonuniform List<scalar> 
1300
(
3.75095
5.62643
-6.26899
3.75095
-6.14951
5.62643
-4.46367
4.46367
-1.5139
1.5139
1.87634
1.87461
-4.9217
4.9217
-4.98314
4.98314
-2.87389
2.87389
-5.24635
5.24635
-5.06615
5.06615
4.68358
-4.68358
-4.97118
4.97118
-1.94423
1.94423
-4.76182
4.76182
3.17282
-3.17282
-5.19357
5.19357
-0.570277
0.570277
-0.554301
4.30525
3.19665
3.19665
-2.60173
2.60173
-4.84544
4.84544
6.21809
-6.21809
9.50145
-9.50145
-3.23245
-3.37739
1.36057
-8.10235
-4.78894
-4.78894
-8.44026
8.44026
-2.81383
2.8126
2.97822
-2.97822
-1.78122
1.78122
-4.43782
-0.0258548
-4.43782
4.47499
-0.0113148
4.47499
-1.65003
0.136126
-1.65003
4.1256
-4.1256
1.32517
0.188733
1.32517
3.03998
-3.03998
-1.87704
3.75337
1.87392
-1.87211
6.17737
-1.87884
3.75345
-4.9249
4.9249
-4.97054
0.0488376
-4.97054
4.90798
0.013719
4.90798
-5.28254
5.28254
-4.92551
-0.0576224
-4.92551
5.0518
-0.068669
5.0518
3.0841
-3.0841
-2.90085
0.026957
-2.90085
2.83294
0.0409498
2.83294
0.353667
5.27276
-5.9801
8.7927
-5.27276
0.0264147
5.20858
0.0377668
5.20858
-5.10492
0.038775
-5.10492
5.00918
0.0569702
5.00918
4.7527
-0.0691193
4.7527
-4.81215
0.128573
-4.81215
-3.3461
-3.30089
-5.06443
0.0932477
-5.06443
-1.97062
0.026393
-1.97062
1.89818
0.046051
1.89818
-3.62795
3.62795
-4.54258
-0.219244
-4.54258
3.11796
0.0548584
3.11796
1.86884
1.88211
5.6198
-5.6198
2.44698
-5.18102
-0.0125483
-5.18102
-5.21722
-4.28422
5.21722
-0.023651
-0.881311
0.311033
-0.881311
3.16209
0.034563
3.16209
2.73854
0.0943991
-2.73854
0.136809
3.45392
-3.45392
1.97727
0.624464
1.97727
-5.57556
5.57556
4.9452
0.0639794
-4.9452
0.0997601
6.15719
0.0609025
6.15719
-6.19984
-0.0182568
-6.19984
3.38043
-6.75782
-3.37162
4.88419
0.0869911
-4.88419
0.095258
3.00182
-0.0235966
3.00182
-2.92476
2.92476
-2.96421
-0.0140103
-2.96421
-2.16323
0.382004
-2.16323
1.49171
0.28952
1.49171
-4.39148
-0.0463368
-4.39148
-4.4158
-0.126785
4.4158
0.0591923
0.731268
-0.731268
-1.78063
0.130602
-1.78063
-4.26967
-0.121809
4.26967
-0.144077
-4.00904
-0.11656
-4.00904
-2.98954
0.0253293
2.98954
0.050444
3.11173
0.0503566
-3.11173
0.0717502
-1.8707
3.75281
-1.88025
3.75417
-4.71121
-0.213691
-4.71121
5.05174
-0.126842
5.05174
4.96039
-0.198566
-4.96039
-0.0101474
4.90796
2.08147e-05
4.90796
-5.2285
-0.0540382
-5.2285
5.27478
0.00775809
5.27478
4.90047
0.00748894
-4.90047
-0.0250411
5.10888
-0.0570744
5.10888
3.13056
-0.0464607
3.13056
-3.05263
-0.0314667
-3.05263
2.93726
-2.93726
2.92261
0.0146573
-2.92261
0.0217615
-11.1322
11.1139
-0.0348822
-11.0973
5.1737
5.1737
4.12843
0.624265
4.12843
-5.02024
0.208089
-5.02024
3.35516
-6.72678
3.31887
-6.66497
3.3205
-11.4229
3.34965
-6.65054
5.19374
-5.19374
5.14004
0.0537028
-5.14004
0.0756056
-2.00324
0.0326179
-2.00324
-3.13034
-0.49761
-3.13034
4.07797
-0.450026
4.07797
-2.9864
2.9864
-3.05218
0.0657798
3.05218
0.0657812
5.1535
-0.044622
-5.1535
-0.0275209
1.10458
0.220587
-1.10458
0.223272
3.64818
-0.194256
3.64818
-3.27344
-0.180486
-3.27344
-2.01415
0.0109075
2.01415
-0.036881
-5.82102
0.245454
-5.82102
-11.1906
0.0933401
-11.1529
-6.1065
-6.1065
2.33376
11.1265
-3.02618
-0.0264502
3.02618
-0.0243644
2.934
0.0524005
-2.934
0.00923992
-2.93383
-0.00343828
2.93383
-0.00906419
-2.5579
0.39467
-2.5579
-0.901337
0.901337
-1.23011
0.328775
1.23011
0.261593
1.13913
-0.407861
1.13913
1.85512
0.043055
-1.85512
0.0744925
-3.92196
-0.0870752
-3.92196
5.11399
-0.0622459
5.11399
-3.18565
-0.0877861
3.18565
-0.0550942
-0.0339657
11.1479
-5.13973
0.034812
5.13973
-11.2088
11.2436
-3.20755
0.64965
3.20755
0.920882
5.30154
0.274025
-5.30154
0.281297
5.23353
0.0412567
-5.23353
0.0397861
-2.71831
-0.412026
-2.71831
-4.42167
-0.289536
4.42167
-0.3437
-11.4747
-0.2008
11.6755
-11.4178
6.02182
0.135375
-6.02182
11.379
-0.596511
-0.134757
0.596511
0.304826
1.6533
-0.514167
1.6533
3.82037
-0.172187
-3.82037
-0.101593
-5.15348
-0.0750239
5.15348
-0.0394901
-2.17189
-0.546421
2.17189
-0.518596
-4.26866
4.30323
1.9087
-3.37198
-3.38584
-7.6562
1.85002
1.90279
4.29699
-7.03829
-4.38456
-6.94303
7.27659
-6.99529
-9.33869
9.26957
7.39957
-7.51613
-5.7836
5.84938
6.42523
-6.37479
1.88041
1.87297
10.0488
-9.99999
-11.0251
10.8114
10.1379
-10.1955
10.8027
-10.8568
-12.4275
12.4687
-5.73838
5.76534
-6.596
6.56454
-6.7809
6.72581
-3.31745
-3.34752
9.07855
-8.98531
11.767
-11.7796
-8.8819
8.66265
3.38187
0.921358
3.43223
-1.88448
3.76489
-1.86898
3.77768
3.3655
-6.68295
3.36128
-6.74712
6.06509
5.70194
-6.04144
-1.61477
-5.87391
5.85031
-5.85816
5.8491
8.71191
-8.73777
-1.88576
3.75872
-1.86841
3.7712
-3.42665
-2.35695
3.37179
0.925203
5.57419
3.50437
-5.66118
-1.28186
-7.63197
7.45978
-7.89548
7.715
-0.462352
5.82581
-5.36345
4.38308
-1.53754
7.36335
5.73904
5.94713
5.86915
-5.59512
1.12614
-6.4896
-6.38984
-2.68085
2.81145
2.6571
-2.46837
5.85222
1.54735
5.70814
-5.44695
-2.06917
-5.53403
3.81281
2.03657
3.87859
4.01493
2.4103
4.04026
3.03713
-3.03248
-0.00465277
-3.0657
6.10283
0.726245
-5.42265
-4.49745
6.6681
3.38073
6.68182
-6.45977
-3.54022
-6.46991
-6.69206
-4.33307
-6.9816
6.92163
3.88981
6.79479
-8.05978
8.02029
6.7775
3.36037
6.70883
-6.69761
-3.49787
-6.72265
10.5377
-2.70115
-7.83656
-6.98108
-5.44638
6.97333
3.8294
7.56493
4.90379
7.60471
3.58662
6.95109
-7.41602
1.96964
-3.83417
-1.90421
-3.81241
3.73164
2.0337
3.77259
-4.1279
-2.46811
-4.15435
-4.20001
-2.58089
4.24647
2.31806
-4.31356
-3.58192
4.40135
2.32446
3.02194
-7.40651
3.62859
-6.97612
-6.32719
-2.65812
-6.25158
4.10677
2.61539
-6.72217
-2.57618
10.9381
-5.23612
9.3233
-7.32213
-4.45745
-7.34965
-5.86776
-3.01414
-5.99454
-6.67427
6.26225
-6.4374
5.98737
13.678
-4.94019
-8.73781
-3.96237
-2.41242
3.89062
-0.458395
-3.71698
3.71233
0.0479046
3.82558
4.74694
4.28855
-3.86369
-1.99447
-3.85445
3.86218
1.98692
3.85874
6.23376
2.47815
6.22245
-6.29445
-2.44332
-6.34078
8.86436
-8.48235
2.93679
-2.92588
5.15324
2.56175
-4.95899
-2.67298
5.9762
-3.02804
-2.94816
-12.2292
10.6771
1.55212
-4.86586
-0.482779
0.0874986
-5.53299
-3.8057
5.40442
0.542718
11.2198
7.41411
-5.51492
5.76038
6.1606
6.22458
-0.165253
5.71893
-5.06928
5.11687
-2.17755
-2.93931
5.23608
-5.35789
-1.10471
-5.27743
4.17272
0.350254
1.87812
-1.56708
-2.14757
-0.53328
-2.07308
1.60701
1.05009
1.8276
1.00599
1.80547
-2.90151
0.526777
2.37473
-1.89552
-1.94159
-3.61399
-0.84765
4.46164
5.45618
2.0036
-5.35459
-0.179442
2.79725
-2.7512
-0.880128
-2.73387
1.92032
-2.80044
-3.3728
-1.83431
5.20711
-3.36683
-0.487617
3.31443
0.564163
-3.74139
-2.13252
3.7554
0.284865
-3.1029
6.19057
-3.08766
-5.09738
2.52291
3.57992
4.55948
-4.84724
2.46814
2.3791
-1.26732
5.81296
0.868862
5.81298
-8.67921
5.13899
6.64677
2.01588
-6.44821
-0.0217086
-8.70092
10.1602
-8.20428
-1.95594
5.75257
4.40766
5.97055
7.70745
-4.94798
10.9185
0.330064
-8.53434
8.37085
-6.35498
4.04258
-10.3976
-11.75
3.21568
-7.29168
8.68347
-1.39179
-2.36237
-5.69741
9.65405
-1.03513
-8.61892
5.75966
-5.41631
-5.35306
10.7694
-8.11747
8.85093
-2.6692
-6.18173
-6.76156
-4.09521
6.83658
1.18371
-9.95198
11.9216
-3.00089
5.91447
0.794358
5.8574
3.9798
-6.04438
2.06458
4.13767
-6.80687
2.75799
-8.80237
-4.8882
9.54472
-4.65652
-7.54632
-6.75302
-0.793299
2.03642
9.8852
-6.94021
5.34619
1.59402
3.32925
0.529483
-3.34391
-0.468501
0.343984
4.42921
-4.77319
4.11657
4.21097
3.34586
1.08335
3.82061
2.0297
-3.79625
-0.358099
-4.02092
1.44003
-1.70286
-3.49227
4.9323
-3.92386
0.43159
-2.63422
-3.45882
6.09304
-4.53843
3.07229
3.11828
5.05921
-4.81755
1.35873
-2.38921
-2.42833
2.56513
-4.26799
1.85178
3.08053
4.17624
0.594315
4.8502
4.69452
-7.46559
0.489478
8.19888
-6.91703
1.69032
5.9144
-7.0365
0.283483
-5.9681
1.10307
-6.33919
-5.6191
3.46977
-6.48391
-6.92778
5.42434
0.798104
-5.48354
-0.511006
-4.57286
-2.10141
-5.11929
-2.15192
-4.28547
-7.0999
-1.47916
-5.62074
4.78308
-4.64502
-2.33658
4.98872
0.998652
-7.55156
7.4168
-7.1732
6.65904
0.0654115
3.64692
4.35396
1.94154
-2.3796
4.32114
-4.34877
6.82692
-8.66238
4.31361
4.1557
-6.59902
-4.50668
4.89994
3.96441
5.18946
9.76466
-10.3312
0.566568
-11.5445
12.7621
-1.21763
-17.6162
6.07165
-7.8515
2.6557
0.281088
2.68832
0.659743
2.3273
-2.98704
-2.26614
-2.30302
-2.21758
-3.2421
5.45968
1.14742
-3.22945
2.08203
-3.41397
4.56139
0.0108924
-3.24034
5.08743
-2.76013
5.36852
-3.40308
1.96544
3.21607
5.45792
-2.24185
4.1572
-1.59545
1.75787
-3.99972
-1.48422
-2.94919
4.98289
-3.14385
3.57544
-0.209699
3.78514
-3.98399
0.955945
-0.638124
3.57285
3.70966
4.11984
-3.03649
2.82805
-4.42349
-1.17168
-3.82918
-0.748651
-0.2784
-4.06618
4.34458
6.29242
-6.57082
-5.25695
9.39279
-4.13584
7.6257
-5.42938
-2.19633
-4.17155
-4.3108
3.77688
1.94205
9.56775
0.173252
-5.60263
-4.89603
-3.97515
3.12214
1.99473
-2.11057
3.6627
2.02308
-0.14496
0.641905
1.18569
1.9055
-1.2636
0.158117
1.74738
-1.40897
2.08778
0.709475
-2.13083
0.0577538
-1.37899
3.2993
0.995745
-2.04584
0.782242
1.08703
-3.26459
4.73022
-2.36367
-2.36655
5.81725
1.1489
-3.51257
4.12853
-3.77827
2.34049
-3.18814
-1.17208
-4.95036
-3.40301
-2.43441
4.51644
-3.02527
5.02887
1.14364
-4.84943
5.99307
-3.40443
1.57012
-3.08591
3.79538
-1.15696
-1.92895
2.59768
2.60943
-2.79169
0.0578247
-0.194008
2.19013
-2.38414
-0.610312
-2.50584
-4.58716
4.87203
-2.14428
4.61242
2.17687
-1.91775
6.53017
1.85231
-3.77006
-3.24507
-3.73268
-1.39096
3.16852
-0.956019
-5.76663
-7.13775
5.75914
0.0538354
-8.8248
10.2639
-1.43914
-5.44407
0.305084
5.44748
-7.60241
0.795542
-4.84442
5.41951
6.28837
6.34221
-8.79139
0.172471
-4.90158
1.60568
-6.50727
6.01334
-3.92687
7.14255
-7.99031
5.65373
-6.99166
5.18661
-1.32066
5.63557
-3.57099
2.20098
-6.29619
-5.11248
6.9926
-3.63224
7.78696
-4.13624
11.9232
-7.13713
6.96299
4.96022
-1.41675
-5.9329
-6.84286
5.42612
0.120127
5.97752
4.89312
-2.86342
4.53502
2.20107
-4.59029
-2.06692
-6.43686
1.84657
-3.31859
-1.86758
3.71415
3.19163
3.72112
1.28582
-3.25262
6.6828
-7.4761
-2.02628
-3.59281
6.74994
-1.32382
4.0467
-7.63951
-2.29249
8.11823
-3.23073
-4.8875
-3.17804
-3.74974
2.78927
-6.53901
3.69464
-4.20564
2.20491
-10.0564
-5.34664
-5.04182
-2.17335
-4.99985
-8.08074
5.90739
-2.00908
5.40771
-9.44539
6.21467
-3.31674
9.22413
-4.53356
-0.585721
5.05216
1.60688
10.831
0.212934
-4.71961
-1.79348
3.90842
-2.11494
1.32866
-3.85325
0.0551666
2.37062
3.44663
-6.54335
-0.0556777
-4.77529
-3.86507
7.82948
5.52772
11.8201
1.48892
9.01429
-1.18481
10.5032
4.00466
4.26625
-4.40833
4.9749
-0.0637442
4.24986
-0.825661
2.7911
1.86266
1.88905
0.862148
2.25344
1.45622
3.20938
0.222338
-2.08068
4.68618
-8.66133
-0.916445
-8.03706
1.2325
5.92807
-4.69557
3.06362
-1.06888
0.94868
0.266698
-1.84186
1.57516
-2.67262
-1.98682
-0.239435
-1.4699
2.25214
1.82941
-2.0127
-0.659914
0.27592
-3.67893
2.91222
-2.85439
-0.244962
5.7481
-2.60974
0.225603
-1.03962
-2.28023
-2.81351
2.75576
6.20827
0.321893
3.12061
5.19392
3.0614
0.197976
4.78945
-6.18124
-4.01291
-6.00877
0.00456915
5.45205
2.06738
7.81782
7.0276
5.70377
-1.93574
-9.41184
8.54465
-3.56975
7.32701
-2.43952
-4.09949
3.7178
3.10912
-4.5159
0.310261
-3.78923
-7.35898
-1.78214
7.99681
-9.04887
8.46315
6.36174
-0.741
-4.41101
-0.630804
4.08224
0.18401
10.6872
-1.2711
-6.88752
8.15862
-4.65697
3.74052
0.786979
2.87572
2.36214
1.29325
-5.59426
-10.2898
-1.7429
-1.52168
-4.10946
0.352189
-2.1816
6.27737
-2.53685
4.08104
5.62177
6.57045
-2.36416
-4.20666
6.5
-2.41896
4.15149
)
;

boundaryField
{
    wall-4
    {
        type            calculated;
        value           uniform 0;
    }
    velocity-inlet-5
    {
        type            calculated;
        value           uniform -3.75095;
    }
    velocity-inlet-6
    {
        type            calculated;
        value           uniform -5.62643;
    }
    pressure-outlet-7
    {
        type            calculated;
        value           nonuniform List<scalar> 8(6.26899 6.14951 6.60984 6.74178 6.64699 6.75205 6.67403 6.67015);
    }
    wall-8
    {
        type            calculated;
        value           uniform 0;
    }
    frontAndBackPlanes
    {
        type            empty;
        value           nonuniform 0();
    }
}


// ************************************************************************* //
