/*--------------------------------*- C++ -*----------------------------------*\
| =========                 |                                                 |
| \\      /  F ield         | OpenFOAM: The Open Source CFD Toolbox           |
|  \\    /   O peration     | Version:  4.0                                   |
|   \\  /    A nd           | Web:      www.OpenFOAM.org                      |
|    \\/     M anipulation  |                                                 |
\*---------------------------------------------------------------------------*/
FoamFile
{
    version     2.0;
    format      ascii;
    class       volVectorField;
    location    "11";
    object      U;
}
// * * * * * * * * * * * * * * * * * * * * * * * * * * * * * * * * * * * * * //

dimensions      [0 1 -1 0 0 0 0];

internalField   nonuniform List<vector> 
918
(
(0.985105 -0.000756988 0)
(0.00480197 2.96625 0)
(-0.00431438 1.66425 0)
(0.979668 0.00245375 0)
(-6.5694e-05 1.63757 7.2299e-22)
(-0.00704593 2.94891 -8.24549e-19)
(0.845624 1.17509 3.02988e-19)
(0.514393 0.256032 -3.5788e-21)
(0.999866 -0.000353335 0)
(0.0333937 1.45302 0)
(-0.00759984 1.47003 0)
(0.853514 -0.00368516 0)
(0.0115287 2.9301 0)
(0.00166127 2.7939 0)
(-0.0219884 3.17241 4.78191e-19)
(-0.0019837 1.55372 -7.22134e-21)
(0.616281 0.119826 2.21104e-19)
(0.198415 1.51022 2.14533e-19)
(0.96404 0.00555608 0)
(0.00252905 1.54584 0)
(0.18679 0.290928 -2.01781e-19)
(1.00151 -0.00549915 0)
(1.0006 -0.0103569 0)
(0.975798 -0.00625896 0)
(0.768258 -0.0244189 0)
(0.0212594 2.62332 0)
(-0.014976 2.91039 2.7251e-19)
(-0.00764082 1.68676 0)
(-0.00893534 1.76505 0)
(-0.00679982 1.68482 0)
(0.00541725 1.79692 0)
(0.00239596 1.65225 -5.61038e-22)
(-0.00176189 1.56862 0)
(-0.0204781 2.98751 -2.8884e-23)
(-0.0169764 3.00542 6.54998e-19)
(0.0020259 3.00016 0)
(0.890251 -0.000369171 0)
(0.408136 0.936986 2.26466e-21)
(0.826911 1.20153 -4.22352e-19)
(0.966604 1.04934 3.97823e-19)
(0.680158 1.29772 -6.92004e-20)
(0.693056 1.27962 3.94163e-19)
(0.549692 0.317986 3.48964e-21)
(0.543538 0.228716 0)
(1.19201 0.595818 0)
(0.504645 0.338208 1.63063e-20)
(0.465541 0.249608 -1.69309e-20)
(0.910725 -0.00933843 0)
(1.00021 0.00012887 0)
(0.999978 0.00022165 0)
(1.00431 -0.00816126 0)
(1.00071 -0.000660059 0)
(1.00019 3.87196e-05 0)
(0.0301102 1.57593 -2.41063e-19)
(0.015881 1.57678 0)
(0.0450257 1.46709 0)
(0.00172815 1.58609 0)
(0.0206628 1.4339 0)
(0.00132259 1.60279 0)
(-0.0125118 1.58292 0)
(-0.00425231 1.45465 0)
(-0.0137105 1.61051 0)
(-0.0100031 1.49137 0)
(0.92264 -0.000125454 0)
(0.917111 0.00465745 0)
(0.86216 -0.00115397 0)
(0.912389 0.00858176 0)
(0.839316 0.000292277 0)
(0.0153182 3.00067 2.95859e-19)
(0.0117398 3.00834 0)
(0.00652493 3.00255 0)
(0.0141428 2.99724 3.26842e-24)
(0.00834248 2.95853 -4.47167e-19)
(0.0151207 2.9818 0)
(0.0110455 2.90393 0)
(0.0264313 2.92924 5.77697e-25)
(0.00439449 2.82443 0)
(0.0331241 2.91428 0)
(-0.00755795 2.74368 0)
(0.299146 3.55881 0)
(-0.147095 3.63648 0)
(0.132047 3.26292 -4.41402e-19)
(-0.00562853 3.00203 0)
(0.00890182 1.77196 0)
(-0.00306042 1.65707 7.12167e-21)
(-0.00225764 1.56441 -1.1054e-20)
(0.673061 0.167362 -7.59157e-20)
(0.634862 0.080848 -7.4098e-20)
(0.645992 0.201609 -2.28674e-19)
(0.598853 0.141658 -1.53748e-19)
(0.246358 1.20182 0)
(0.180965 1.51519 -2.28633e-19)
(0.359183 1.40802 3.85376e-19)
(0.987916 0.010476 0)
(0.937971 0.00928219 0)
(1.00038 0.000457235 0)
(1.00311 0.00972388 0)
(1.00243 0.00836317 -4.20775e-19)
(0.991668 0.00961303 3.22507e-19)
(-0.00230495 1.64336 0)
(0.000513674 1.54778 0)
(-0.0114709 1.69891 0)
(-0.00717353 1.65909 0)
(0.000936539 1.55454 0)
(0.284952 0.30103 6.17364e-20)
(0.322453 0.273259 0)
(0.992825 -0.00819225 0)
(0.956003 -0.00566893 0)
(0.88629 0.0235622 0)
(0.850705 0.0252989 0)
(0.813078 -0.00443764 0)
(1.03136 -0.000226863 0)
(0.804702 0.0331122 0)
(0.704627 -0.00769441 2.98654e-19)
(-0.0337338 2.86933 1.37554e-19)
(0.0453828 2.90648 0)
(0.0594146 2.88098 0)
(-0.00581175 2.69303 0)
(-0.0135508 2.98532 2.49923e-19)
(-0.0187964 2.89579 0)
(-0.0158204 2.9881 -7.93144e-19)
(-0.013391 2.92538 2.75006e-19)
(-0.00327216 1.80527 0)
(-0.000218177 1.80026 0)
(0.000361631 1.66 -1.56142e-22)
(0.00181106 1.65106 0)
(-0.000200748 1.55499 0)
(0.946856 0.00322859 0)
(0.894666 0.0030369 0)
(0.868629 -0.00372707 0)
(0.942815 -1.88946e-05 0)
(0.883142 -0.00161877 0)
(0.520884 1.12331 -7.34061e-21)
(0.567363 1.16479 0)
(0.376417 0.884627 4.4442e-21)
(0.305419 0.761306 0)
(0.944433 1.08474 -1.14345e-19)
(1.06657 0.906895 2.38293e-19)
(0.334205 1.43411 0)
(0.521938 1.37003 0)
(0.540017 1.32329 0)
(0.0485052 0.0271786 -3.80312e-20)
(0.583615 0.293658 0)
(0.575211 0.209444 4.44983e-20)
(1.04246 0.95477 0)
(1.11763 0.806258 0)
(1.14209 0.758464 -2.0961e-19)
(1.17337 0.64648 0)
(1.22621 0.431735 2.66084e-20)
(0.944703 -0.00128766 0)
(0.951378 -0.00757276 0)
(0.89238 -0.00406938 0)
(0.985362 -0.00936604 0)
(0.97149 -0.00964441 0)
(0.937529 -0.00637315 0)
(1.00008 0.00209748 0)
(1.0009 0.00168364 0)
(0.999785 0.000926233 0)
(0.0187701 1.65254 1.3123e-19)
(0.0525059 1.54369 0)
(0.00367042 1.68548 2.11492e-19)
(0.0121917 1.58152 -1.8095e-19)
(0.0491771 1.54152 -1.76335e-19)
(-0.00316585 1.57589 0)
(0.069717 1.50533 0)
(0.00158513 1.58546 0)
(0.017914 1.43236 0)
(0.000694854 1.68013 -5.12483e-22)
(0.0103298 1.59611 0)
(-0.00602692 1.6903 -2.64153e-20)
(-0.00628655 1.59769 5.04196e-20)
(0.000898349 1.58617 0)
(-0.00815442 1.57768 0)
(0.00823571 1.43772 0)
(-0.0136035 1.62886 0)
(-0.00801738 1.50955 0)
(0.983795 0.0128736 0)
(0.938931 0.00273169 0)
(0.968829 0.00599131 0)
(0.91428 0.000700238 0)
(0.869914 -0.00329373 0)
(0.936469 0.00397184 0)
(0.928831 0.00645913 0)
(0.866472 0.00293338 0)
(0.00454423 3.0644 -2.46386e-21)
(0.0165956 3.05757 0)
(0.0152938 2.96922 0)
(0.00885023 2.87651 0)
(0.948131 3.98725 0)
(1.29048 3.23888 4.84066e-19)
(0.0714242 3.09254 0)
(-0.0213019 2.91772 0)
(-0.000594566 1.79478 0)
(0.00351361 1.77529 0)
(0.00465394 1.77909 0)
(0.00159448 1.7847 1.60273e-21)
(0.00505103 1.77238 0)
(0.00757853 1.77824 0)
(-0.000503538 1.57175 1.67442e-21)
(-0.00159938 1.67534 1.46951e-20)
(-0.00289061 1.66817 1.12947e-20)
(-0.00143082 1.56686 0)
(0.6972 0.132891 1.11867e-19)
(0.662655 0.0597604 -1.08505e-19)
(0.22698 1.32317 0)
(0.28909 1.01031 -1.10321e-19)
(0.150919 1.44002 -3.24948e-19)
(0.167004 1.34341 3.24575e-19)
(0.884841 0.00791154 0)
(0.960122 0.0125835 0)
(0.973585 0.0156566 0)
(0.912555 0.0131258 0)
(-0.0110565 1.63989 0)
(-0.00559418 1.64504 0)
(-0.0041342 1.52988 0)
(0.452572 0.352487 1.48875e-19)
(0.386358 0.333711 -1.83973e-19)
(0.395611 0.252776 0)
(1.15322 0.0850393 -1.60266e-21)
(1.13606 0.0389053 0)
(1.06482 0.0363277 0)
(0.979975 0.00391368 0)
(0.729856 0.100899 0)
(0.755587 0.0573402 -4.80022e-19)
(0.690935 0.0231341 1.83557e-19)
(0.0104031 2.9836 1.74982e-19)
(-0.0315397 2.87006 2.0077e-20)
(0.0017887 3.0498 -5.32078e-21)
(0.0204887 3.04299 1.97901e-19)
(-0.0152423 2.99632 9.14057e-21)
(-0.0127499 2.94942 -3.7042e-23)
(-0.0175833 3.0115 -1.71986e-19)
(0.0143039 3.02284 1.23962e-19)
(0.00683679 3.03702 -1.98159e-19)
(0.964713 0.00527236 0)
(0.958415 0.00566253 0)
(0.902184 0.00411478 0)
(0.945772 0.00946542 0)
(0.934853 0.00291274 0)
(0.868555 0.00410691 0)
(0.938535 -0.00251282 0)
(0.930222 -0.00221464 0)
(0.872021 -0.00706559 0)
(0.72797 1.39178 1.34612e-19)
(0.773631 1.48695 0)
(0.193653 0.332715 6.62483e-21)
(0.110631 0.569284 1.02903e-19)
(0.252165 0.711422 -6.56477e-20)
(0.225598 0.606293 1.32696e-19)
(0.387292 0.606211 2.61166e-19)
(0.106823 0.159125 1.02971e-19)
(0.631312 0.22924 1.66382e-19)
(0.610461 0.262919 4.08608e-20)
(0.588399 0.175597 8.56424e-20)
(1.21869 0.482713 1.21494e-19)
(1.23705 0.281489 1.28851e-19)
(-0.00679186 1.68857 8.40956e-20)
(0.00271769 1.58268 0)
(1.0192 0.0213705 0)
(0.99638 0.0115507 0)
(0.95609 -0.00286484 0)
(0.011374 3.07459 0)
(0.0212425 2.94378 3.38187e-19)
(0.0175103 2.95645 0)
(0.00645595 2.8504 -3.37022e-19)
(0.00542272 3.09226 7.8074e-20)
(0.00599497 3.08211 0)
(0.860035 1.796 -9.86968e-20)
(1.24996 2.36258 2.14624e-19)
(0.840406 1.9067 -5.71319e-19)
(0.0218377 2.98759 -1.27919e-19)
(0.0389127 3.01324 0)
(-0.0304855 2.88597 0)
(-0.00846964 1.67357 -3.35975e-21)
(-0.00273304 1.67669 -3.45262e-20)
(-0.00244106 1.58227 -2.72849e-21)
(0.283829 1.20644 3.35067e-19)
(0.307413 0.870239 -2.24751e-19)
(0.032264 1.6104 2.17566e-19)
(0.0729941 1.54354 -2.65653e-19)
(0.0879809 1.45261 3.20626e-20)
(0.00493709 3.11852 -4.39236e-19)
(0.0115834 3.11894 4.97098e-19)
(-0.00901737 2.98088 2.1688e-19)
(-0.00362012 2.97853 -1.91264e-19)
(-0.0218354 2.88286 -2.21006e-19)
(0.0076064 3.09891 -5.7343e-19)
(0.000812479 3.10499 5.80724e-19)
(0.301029 0.470985 0)
(0.0766496 0.493517 -1.66599e-20)
(0.0849158 0.066128 9.71317e-21)
(0.448605 0.779415 3.11571e-19)
(0.199371 0.355582 -4.67895e-19)
(1.23441 0.178154 -2.23389e-20)
(1.23375 0.326526 0)
(1.22126 0.12999 5.1077e-20)
(0.00324566 1.67668 -6.75135e-22)
(-0.00520609 1.6769 0)
(0.00502215 1.5774 0)
(0.310173 1.05736 -1.22156e-19)
(0.343239 0.939154 -2.43172e-19)
(0.278454 0.65042 4.26501e-19)
(1.00497 -0.00934827 0)
(1.00711 -0.00769832 7.72607e-20)
(-0.00284019 1.80108 0)
(-0.00855711 1.80652 0)
(1.00221 0.0037089 9.14614e-22)
(1.00222 0.00977114 1.57538e-19)
(0.00333699 1.78617 -2.12366e-21)
(0.00310911 1.7874 0)
(0.0428435 3.18969 4.86457e-20)
(0.389225 3.50629 0)
(1.11635 0.625777 2.68206e-20)
(1.01627 0.0187452 -8.47292e-22)
(1.01244 -0.0231263 0)
(1.00169 0.000348478 8.1373e-23)
(0.00535012 1.74426 0)
(0.0497874 1.82759 0)
(-0.0207763 1.7838 0)
(0.0167909 1.80216 3.67141e-20)
(-0.00893331 1.80188 1.73058e-20)
(1.00173 0.0122097 8.59868e-22)
(1.04401 0.0137742 0)
(1.07185 0.0221149 0)
(-0.00222295 1.77943 0)
(-0.00732922 1.79419 0)
(-0.00611424 1.79652 0)
(0.0394478 1.5174 -1.67278e-19)
(1.01199 -0.00935964 0)
(1.00879 -0.0168815 0)
(1.00342 0.000374676 9.76875e-20)
(1.00561 -0.00498408 -1.17242e-19)
(1.00133 -0.00192834 0)
(-0.00634583 1.78404 0)
(-0.000918794 1.79746 0)
(-0.00205717 1.79143 0)
(-0.00485915 1.79844 0)
(-0.00466084 1.79528 0)
(-0.00546264 1.798 0)
(1.02453 0.0122942 0)
(1.02145 -0.00270244 -4.07437e-22)
(0.778575 1.20919 2.10667e-19)
(1.00227 0.00113675 -9.77073e-20)
(1.00396 0.0056109 1.1742e-19)
(1.00132 0.00218525 0)
(1.01328 0.0135536 9.44248e-20)
(1.00852 0.00973833 -1.17874e-19)
(1.00606 0.0180166 0)
(-0.00444149 1.79467 0)
(0.00265185 1.78925 6.22795e-21)
(0.00134188 1.78973 -4.50721e-21)
(1.17844 0.251978 -2.82897e-20)
(1.1111 0.0788905 0)
(0.0636336 3.0777 -2.26472e-19)
(0.0715691 2.84698 -1.81648e-20)
(0.156932 3.20117 3.47609e-19)
(0.149383 3.22976 -5.2822e-22)
(0.141619 3.25602 0)
(0.0222295 3.13931 4.97599e-20)
(0.0851176 3.1642 2.18462e-19)
(0.0767116 3.19192 -9.74224e-20)
(0.0285 3.12758 0)
(0.703452 0.34076 0)
(0.613074 0.399093 0)
(1.07284 0.654518 -1.04051e-19)
(1.09307 0.801037 1.62188e-19)
(1.12911 0.533755 0)
(1.18688 0.489514 0)
(1.01794 0.0174849 -1.78264e-19)
(1.01481 0.022058 2.22556e-19)
(1.01056 -0.0204892 0)
(1.00974 -0.0135658 0)
(1.00625 0.00120026 0)
(1.01176 0.00256437 0)
(1.00456 0.00235196 0)
(1.0137 0.00690127 0)
(1.00656 0.00608232 0)
(1.00586 0.00344265 0)
(0.00018014 1.7482 0)
(0.00454353 1.76057 0)
(-0.0111293 1.73574 0)
(-0.00346006 1.70009 0)
(0.0414058 1.8342 0)
(0.0744914 1.83035 -1.41628e-19)
(0.0205331 1.83635 0)
(0.0113982 1.8231 7.00585e-20)
(-0.00847116 1.81044 -7.02948e-20)
(-0.0236131 1.78411 0)
(-0.0227058 1.78471 0)
(-0.0160323 1.78381 0)
(-0.00525134 1.77628 0)
(-0.00328622 1.80205 -2.04768e-20)
(-0.00846023 1.80217 2.47197e-20)
(0.00675167 1.80843 3.08785e-20)
(-0.00425029 1.80298 0)
(-0.00668886 1.80455 -3.99959e-20)
(-0.00509133 1.80223 -2.33778e-20)
(-0.00219308 1.80239 1.70892e-20)
(-0.00853408 1.79851 -3.22221e-20)
(-0.00484526 1.8042 -3.76907e-20)
(1.0091 0.0166761 1.73033e-19)
(1.00828 0.0048227 -2.1548e-19)
(1.00202 0.0193718 -1.79184e-19)
(0.988092 0.0144123 2.29098e-19)
(1.03677 0.0165528 0)
(1.03917 0.00956937 0)
(1.0606 0.0362924 0)
(1.04431 0.0211349 0)
(1.05893 0.0112055 0)
(1.09921 0.0671887 0)
(1.07701 0.042255 0)
(1.08966 0.026237 0)
(0.00164399 1.77813 -7.12316e-22)
(-0.00319408 1.77333 0)
(-0.000633321 1.77404 0)
(-0.00658514 1.79634 6.68394e-21)
(-0.00530621 1.79616 -3.20408e-22)
(-0.0117762 1.77683 6.81532e-21)
(-0.00816463 1.78416 -6.89316e-21)
(-0.00832766 1.79381 0)
(-0.00645883 1.79527 0)
(-0.00714457 1.79601 0)
(-0.00915997 1.79579 0)
(-0.00869737 1.79744 0)
(0.112097 1.4195 3.37753e-19)
(0.285567 1.35589 1.3409e-19)
(0.409716 1.83143 -8.38769e-20)
(0.265567 1.76734 2.10864e-19)
(-0.089196 2.29252 4.50298e-20)
(1.01468 -0.0249502 0)
(1.01517 -0.017784 0)
(1.00902 -0.029086 0)
(1.00812 -0.00297052 0)
(1.00562 -0.00242613 0)
(1.0057 -0.00427353 0)
(1.0098 -0.00491902 0)
(1.01167 -0.0120565 0)
(1.02385 0.000480433 1.70332e-19)
(1.01916 0.00157229 -2.15794e-19)
(1.02233 -0.00117647 -1.68223e-19)
(1.01896 0.00105956 2.08927e-19)
(0.763537 1.2147 0)
(0.647416 1.27093 2.59942e-19)
(0.856277 1.15778 1.56532e-19)
(0.91599 1.09074 -2.07894e-19)
(1.12838 2.55393 -1.77683e-19)
(0.824847 0.116092 1.13458e-19)
(1.10831 0.089714 0)
(1.15346 0.175108 2.64257e-20)
(1.15369 0.148735 1.15956e-21)
(0.962121 0.132671 0)
(0.194166 2.97088 1.73431e-20)
(0.137093 2.87577 -3.04194e-19)
(0.0531472 2.34503 2.07623e-19)
(0.122941 0.176381 -7.94918e-20)
(0.33466 3.4423 -1.88508e-19)
(0.20277 3.33757 0)
(0.230298 3.38648 2.45327e-19)
(0.269523 3.06111 -2.31897e-19)
(0.382613 3.22259 0)
(0.00775173 3.12 1.16776e-20)
(0.0194053 3.12896 -1.51634e-19)
(0.0171525 3.12452 2.22391e-19)
(0.0397296 3.14017 0)
(0.0379921 3.15261 0)
(1.14136 2.61788 0)
(0.512901 0.828468 -8.21827e-20)
(1.03193 0.952599 -8.37421e-20)
(0.957968 1.02638 0)
(0.833233 0.915325 2.39147e-20)
(1.02847 0.861658 1.18365e-20)
(0.389704 0.489687 -2.21548e-19)
(0.730429 0.340765 -9.77569e-21)
(0.738248 0.287518 8.79825e-20)
(0.60697 0.441599 6.97306e-21)
(0.568347 0.421745 -2.87883e-19)
(0.700113 0.370283 0)
(0.687448 0.425475 1.43364e-19)
(0.70009 0.423687 0)
(0.64878 0.410943 0)
(0.663148 0.356513 0)
(0.727028 0.607379 5.05165e-20)
(1.15192 0.259339 1.21267e-20)
(1.16095 0.389415 0)
(1.19439 0.348548 0)
(0.784962 0.220314 1.29839e-19)
(0.781757 0.535369 -7.2179e-20)
(0.688482 0.509635 1.16462e-19)
(0.873314 0.404557 -1.09269e-19)
(1.01996 0.00771457 1.15997e-19)
(1.0178 0.0182749 -1.18807e-19)
(1.01659 0.0176435 0)
(1.02072 0.0138775 0)
(1.01121 0.00281697 -1.06849e-19)
(1.01179 0.00837869 1.06176e-19)
(1.02819 0.00357589 0)
(1.02805 -0.000329849 0)
(1.01418 0.0063336 0)
(1.01815 0.0144827 0)
(1.0283 0.00186041 0)
(1.02251 0.00286292 0)
(-0.00511983 1.76757 0)
(-0.00182285 1.7687 0)
(-0.0573386 1.75431 2.51078e-20)
(0.0058024 1.57057 7.11507e-20)
(-0.0377436 1.68978 1.41419e-19)
(-0.0042233 1.62011 -2.34462e-19)
(-0.0936336 1.74084 0)
(-0.0678239 1.85873 -4.7231e-20)
(-0.0407265 1.85394 0)
(-0.0390714 2.25272 -6.39149e-20)
(0.089445 2.07623 2.1558e-19)
(-0.107425 1.88199 4.17769e-20)
(-0.133938 1.65392 4.18773e-20)
(-0.123222 1.71968 -3.33385e-20)
(-0.203456 1.66904 9.8522e-20)
(-0.116245 1.9619 0)
(-0.130433 2.00585 -4.93074e-20)
(-0.0166344 1.80678 -1.88624e-20)
(-0.012581 1.81219 0)
(-0.0117299 1.79808 7.77416e-20)
(-0.0184456 1.80231 0)
(7.57875e-05 1.82178 -7.75241e-20)
(-0.00475235 1.81745 0)
(-0.0107612 1.79573 -1.54878e-20)
(-0.00107508 1.80117 0)
(-0.00381363 1.79797 0)
(-0.0116079 1.79596 1.73209e-20)
(0.00951193 1.80622 5.66441e-22)
(-0.000896883 1.81136 8.5015e-20)
(0.0124707 1.80775 5.62266e-22)
(-0.0120962 1.7908 1.36827e-20)
(-0.0116057 1.79263 8.22052e-21)
(-0.0207658 1.78859 0)
(-0.01648 1.79101 0)
(-0.00413574 1.80419 4.3928e-20)
(-0.000803502 1.79756 2.85884e-20)
(-0.00061463 1.80016 -4.07712e-20)
(-0.00988292 1.80914 0)
(-0.0103671 1.78569 -2.35879e-20)
(-0.00967028 1.79479 1.08749e-20)
(-0.00950952 1.79433 -3.36374e-21)
(-0.0110068 1.79093 -1.67021e-20)
(-0.00551427 1.79849 -5.70809e-21)
(-0.00641884 1.80133 2.70676e-20)
(1.01834 0.0039078 -1.12384e-19)
(1.0135 0.00996674 1.1482e-19)
(1.01213 0.0041263 0)
(0.991416 0.0474975 1.62264e-19)
(0.986922 0.0336867 -1.91009e-19)
(0.961978 0.029062 2.21478e-19)
(0.995358 0.084021 -2.15195e-20)
(1.02569 0.0109651 0)
(1.03084 0.00969622 9.72969e-20)
(1.03134 0.00726659 -9.66388e-20)
(1.03166 0.0399705 -5.31944e-21)
(1.03241 0.0277694 4.70672e-20)
(1.01804 0.0427076 0)
(1.00997 0.0389663 -1.74174e-20)
(1.01034 0.0249355 0)
(1.01453 0.0171904 0)
(1.02632 0.00597916 0)
(1.02165 0.00238709 0)
(1.01535 0.0247016 3.6098e-20)
(1.02077 0.0148016 -8.26576e-20)
(1.0178 0.0342979 -3.71059e-20)
(1.01425 0.0328283 -4.24753e-20)
(1.01447 0.0411389 7.65634e-20)
(1.05401 0.0398287 0)
(1.04636 0.082337 0)
(-0.0108321 1.78555 -9.52282e-21)
(-0.00830038 1.77755 -8.34948e-22)
(-0.00885064 1.77934 0)
(-0.00506758 1.78915 9.85926e-21)
(-0.00383137 1.7841 1.47173e-21)
(-0.00179363 1.78788 -1.55618e-21)
(-0.00438845 1.80201 2.05608e-20)
(-0.00627383 1.79881 -1.22591e-21)
(-0.00570974 1.79768 5.97506e-21)
(-0.00436089 1.79934 -1.04689e-20)
(-0.00403425 1.79979 1.25222e-20)
(-0.0123296 1.78325 2.08296e-22)
(-0.0131811 1.77818 1.02095e-20)
(-0.040349 1.36865 -1.74628e-19)
(-0.181871 1.7026 -1.83422e-19)
(0.625788 1.22154 -2.51155e-19)
(0.400645 1.27387 -1.28785e-19)
(0.532437 1.3125 0)
(0.411267 1.91704 8.72874e-20)
(0.593318 1.73882 1.24958e-19)
(0.287957 1.76251 3.22601e-20)
(0.266537 1.97892 -2.3589e-19)
(0.279881 2.11673 2.24068e-19)
(0.385956 1.80402 0)
(0.358553 1.74388 -1.98792e-19)
(0.103122 1.81734 3.7224e-19)
(0.208287 1.78914 -2.63107e-20)
(0.133191 1.77879 -4.96715e-19)
(0.885571 2.44161 -7.17675e-20)
(0.771893 2.214 0)
(1.0117 -0.00556248 3.85709e-21)
(1.01393 -0.0168861 -3.23019e-21)
(1.01783 -0.0169728 -5.67743e-20)
(1.02721 -0.0159182 5.72069e-20)
(1.02325 -0.00891852 0)
(0.726646 1.1249 0)
(0.750674 1.10254 0)
(0.759929 1.07059 0)
(0.698626 1.13171 0)
(1.14915 2.573 2.58778e-20)
(1.03896 2.29467 0)
(1.07128 2.25139 -6.49059e-22)
(0.766337 2.6891 0)
(1.0288 2.69101 7.98109e-20)
(1.0541 2.61802 -5.165e-20)
(0.83295 0.162451 0)
(0.801904 0.158884 3.26478e-20)
(0.888562 0.12045 1.68336e-19)
(0.849117 0.10892 -6.62696e-20)
(0.8496 0.0654762 -2.03271e-19)
(1.00843 0.208507 -1.05505e-19)
(0.930585 0.25606 -6.63397e-21)
(0.897263 0.242488 1.50969e-19)
(0.960235 0.17899 1.13604e-19)
(0.911682 0.155753 -2.1244e-19)
(0.893201 0.159552 2.73015e-20)
(0.929672 0.2066 -5.3112e-20)
(0.904226 0.177559 0)
(0.966929 0.161131 1.01951e-19)
(0.998342 0.168825 0)
(0.990365 0.186912 0)
(1.03883 0.0996156 3.36881e-20)
(1.01907 0.158083 -5.20498e-21)
(1.00622 0.214073 -1.70346e-20)
(1.04902 0.19316 0)
(1.00478 0.025415 8.65979e-20)
(1.00712 0.0387809 1.02087e-19)
(1.00957 0.0319513 -8.49396e-20)
(1.00645 0.0440676 -6.88205e-20)
(0.996455 0.0511997 -1.14833e-19)
(0.964218 0.129011 0)
(0.984359 0.0875268 0)
(0.963881 0.0457975 -7.97429e-20)
(0.922189 0.0524671 3.34407e-20)
(0.999376 0.0782563 9.83506e-20)
(1.0086 0.0971788 -1.01681e-19)
(1.02401 0.132467 9.08197e-20)
(1.00182 0.127121 0)
(1.01673 0.0815522 0)
(1.00799 0.0639589 -4.20425e-20)
(1.00871 0.0709281 -7.88469e-20)
(0.699565 1.2399 -1.03919e-20)
(0.656964 1.49823 1.579e-20)
(1.09038 2.73052 5.35863e-21)
(1.18791 3.08494 -3.25088e-20)
(1.21422 2.67912 2.17228e-19)
(1.24135 2.68521 -1.458e-19)
(1.12805 2.30283 8.34331e-21)
(1.17599 2.96432 5.96082e-20)
(1.20602 2.91878 -4.2615e-20)
(1.19943 3.24163 -1.35877e-19)
(1.33054 2.95984 1.59105e-19)
(1.27057 2.88677 0)
(0.502719 0.831616 -5.66652e-21)
(0.164503 1.29126 1.57221e-19)
(0.528542 0.548478 1.47149e-19)
(0.342631 0.327309 1.60792e-19)
(0.564239 0.458878 1.61259e-19)
(0.552497 0.502476 -2.50379e-19)
(0.540523 0.534171 2.04679e-19)
(0.515239 0.478328 -8.60297e-20)
(0.483871 0.420121 1.97426e-19)
(0.790796 0.256798 -7.19469e-20)
(0.759536 0.286961 0)
(0.762549 0.251126 4.96192e-21)
(0.675203 0.508423 7.34226e-20)
(0.665996 0.476295 -2.72051e-19)
(0.592846 0.502984 7.33538e-21)
(0.618137 0.473115 0)
(0.602323 0.729558 5.95208e-20)
(0.788999 0.760497 1.48829e-20)
(0.727769 0.821601 -2.13157e-20)
(0.82974 0.790646 -5.23558e-21)
(0.883317 0.821538 6.58409e-21)
(0.889574 0.828561 -6.76026e-21)
(0.771698 0.620366 -8.62888e-20)
(0.855047 0.716789 4.87976e-21)
(0.932425 0.709105 0)
(0.904625 0.66237 -7.45283e-21)
(0.953254 0.277631 2.44484e-20)
(1.05292 0.262882 5.44904e-21)
(0.99361 0.237948 4.26055e-20)
(0.930273 0.328997 -5.62102e-20)
(0.989018 0.401594 0)
(1.03565 0.391645 0)
(0.858367 0.332609 1.36828e-21)
(0.851484 0.275087 0)
(0.852512 0.249259 7.82345e-20)
(0.880653 0.250487 -3.13503e-21)
(0.864415 0.406357 2.99454e-19)
(0.83148 0.470641 7.56004e-20)
(0.823157 0.431376 -9.83971e-20)
(0.758978 0.434483 1.05647e-19)
(0.750743 0.43322 7.188e-20)
(0.732557 0.418763 -6.99676e-20)
(1.02519 0.0099174 9.22402e-20)
(1.03233 0.000216705 0)
(1.0332 -0.00511724 6.16323e-20)
(1.02323 0.000634993 -1.38512e-19)
(1.03488 0.0033436 6.64732e-20)
(1.03218 0.00484768 -1.41808e-19)
(1.02958 0.00142547 0)
(1.02598 0.00388993 -2.94355e-20)
(1.03006 0.00543503 7.39884e-20)
(1.0218 0.0118209 -3.76662e-20)
(1.02327 0.010245 2.74584e-20)
(-0.000454295 1.7784 0)
(-0.00665092 1.79426 0)
(0.00070513 1.77264 0)
(0.00325967 1.7731 0)
(-0.0237447 1.78278 2.44318e-21)
(-0.0225542 1.76439 -3.41806e-21)
(-0.0445011 1.83632 -1.28073e-20)
(-0.0637222 1.78435 -2.24152e-20)
(-0.00512333 1.80072 -2.35175e-20)
(-0.0123517 1.7993 1.6976e-20)
(-0.0162338 1.79105 -5.90114e-21)
(-0.0133723 1.79884 2.38687e-21)
(-0.00881435 1.79541 2.61681e-22)
(-0.00501849 1.79654 -2.11757e-21)
(-0.00532732 1.80604 -8.30102e-20)
(0.00254262 1.81919 0)
(-0.00460038 1.81137 4.89227e-20)
(-0.016414 1.82315 3.05394e-20)
(-0.00723306 1.94267 -3.36584e-20)
(0.103485 1.8808 0)
(0.0966282 1.90509 -2.48349e-19)
(0.10104 2.00719 1.72556e-19)
(0.0125176 1.88346 -9.51075e-20)
(0.00870363 1.83612 5.31208e-20)
(0.0191369 1.84564 0)
(-0.00372895 1.8037 -5.60977e-20)
(0.000405966 1.8022 -7.31476e-20)
(0.000319342 1.80281 0)
(2.46497e-05 1.80751 -2.22921e-21)
(-0.00988382 1.80923 2.89826e-20)
(-0.0213836 1.79051 2.15022e-21)
(-0.0223179 1.78944 -3.66002e-20)
(-0.022101 1.78549 8.13077e-21)
(-0.0192277 1.78622 1.50654e-20)
(-0.0148069 1.79678 0)
(-0.0190678 1.78479 0)
(-0.0123576 1.7954 1.13886e-20)
(-0.0119703 1.78476 -3.61773e-21)
(-0.0179073 1.78506 0)
(-0.0164394 1.79395 8.94236e-21)
(-0.0121899 1.7961 -1.72326e-20)
(1.02152 0.0151266 0)
(1.02389 0.0136151 -8.93813e-21)
(1.02083 0.0149036 -6.61417e-20)
(1.02159 0.0183907 0)
(1.02166 0.0196372 0)
(1.02391 0.00766418 -1.92957e-21)
(1.02408 0.0080267 1.08738e-19)
(1.0211 0.00795331 1.33291e-19)
(1.02032 0.00646299 0)
(1.01749 0.00692808 0)
(1.01903 0.0133015 6.66514e-20)
(1.01716 0.0113318 0)
(1.01807 0.011061 0)
(-0.010959 1.78618 0)
(-0.0130274 1.77696 8.85665e-22)
(-0.0130991 1.77857 5.45512e-21)
(-0.0114535 1.7843 0)
(-0.0123682 1.77988 7.50956e-21)
(-0.0112477 1.78361 -3.40294e-21)
(-0.0102684 1.78353 0)
(0.167707 2.46166 0)
(-0.249544 1.81491 3.75113e-19)
(-0.133446 2.25154 0)
(0.0596392 1.34844 -5.29391e-19)
(0.310082 1.06537 0)
(0.126665 1.27648 2.41874e-19)
(1.08156 2.80156 1.68295e-21)
(0.928843 2.53329 8.71546e-20)
(0.798307 2.23157 -3.54238e-21)
(0.784676 2.32436 5.80152e-20)
(0.901709 2.67542 0)
(0.96466 2.60614 0)
(0.836831 2.41427 0)
(0.896705 2.26437 -1.75542e-19)
(0.37127 2.72012 -9.09062e-21)
(0.722529 2.7487 7.34872e-21)
(0.744145 2.67917 -5.74758e-21)
(0.552029 2.01235 0)
(0.695331 2.19162 0)
(0.697255 1.95923 -1.17809e-19)
(0.553281 2.63845 0)
(0.645313 1.09988 0)
(0.453286 0.906157 -2.0745e-20)
(0.538755 0.929545 -2.10819e-21)
(0.52578 1.08031 0)
(0.449745 1.09361 3.02666e-20)
(0.772624 0.865059 8.1053e-21)
(0.803442 0.976353 0)
(0.771297 0.911389 -2.88024e-20)
(0.62403 1.05479 0)
(0.632364 0.931242 0)
(1.14517 2.71141 -2.65647e-21)
(1.1133 2.78505 -3.64814e-22)
(1.00056 2.27965 -1.82428e-20)
(1.02893 2.28578 6.32056e-21)
(1.12321 2.70344 0)
(1.12962 2.65729 -7.35919e-21)
(1.05265 2.43625 -6.25386e-20)
(0.913586 2.14617 -1.18852e-20)
(0.836073 1.53337 0)
(0.81218 1.16552 9.09815e-21)
(0.747155 1.11416 0)
(0.849561 0.195111 0)
(0.817628 0.172754 0)
(0.774398 0.179309 0)
(0.851441 0.208263 -1.23464e-19)
(0.803542 0.218627 7.62515e-20)
(0.922495 0.0502902 -6.84557e-20)
(0.927756 0.0929275 0)
(0.898418 0.0997619 3.15436e-20)
(0.881817 0.0642578 1.29029e-19)
(0.884931 0.0529183 -7.952e-20)
(1.14217 3.37826 -4.13494e-19)
(1.18837 3.29799 0)
(1.1187 3.39632 -8.00872e-19)
(0.621039 3.56231 7.02123e-19)
(0.818001 3.13595 1.6551e-19)
(0.486674 0.840377 7.75963e-20)
(0.366232 0.870699 0)
(0.33091 0.571365 -3.0403e-20)
(0.402055 0.676468 1.34391e-19)
(0.517213 0.550727 -4.41795e-20)
(0.501636 0.562301 4.80874e-20)
(0.599575 0.528981 1.04026e-19)
(0.621652 0.5452 0)
(0.597343 0.610518 0)
(0.550035 0.549485 0)
(0.916209 0.578205 -1.85352e-20)
(0.82937 0.509443 -7.25301e-20)
(0.858065 0.553547 3.66254e-20)
(0.885213 0.492303 -5.43481e-20)
(1.01015 0.460359 0)
(1.00151 0.538273 -3.02198e-21)
(0.789989 0.382997 -1.58401e-19)
(0.800236 0.36602 -1.77623e-19)
(0.7725 0.38912 1.23756e-19)
(0.776697 0.358344 -1.40172e-19)
(0.833169 0.294795 -1.00734e-19)
(0.80363 0.303655 1.25295e-19)
(1.03321 0.00562662 -6.85909e-20)
(1.03221 0.0073315 1.42392e-19)
(1.02574 0.013116 8.71448e-20)
(1.02625 0.0147345 -1.04533e-19)
(1.02044 0.0154867 0)
(1.02452 0.0107069 -1.71727e-19)
(-0.0101196 1.80769 1.15153e-20)
(-0.0139524 1.8077 0)
(-0.0150818 1.80436 9.10284e-20)
(-0.0126386 1.81977 -8.17496e-20)
(-0.0338213 1.82402 2.38427e-20)
(-0.024812 1.81459 0)
(-0.0115968 1.7865 0)
(-0.0146736 1.78371 -4.06815e-21)
(-0.013733 1.78032 3.61608e-21)
(-0.0129055 1.78011 9.80859e-22)
(-0.0106909 1.78449 -7.37953e-21)
(-0.0102539 1.78631 4.71262e-21)
(0.810464 1.61318 3.91703e-19)
(0.636468 1.75575 -4.10406e-19)
(0.253809 1.38163 3.84381e-19)
(0.338 1.94622 -2.45754e-20)
(0.74242 1.06255 0)
(0.489114 1.04796 2.56921e-19)
(0.51607 1.05559 -2.50261e-19)
(0.400018 0.963329 -3.74641e-19)
(0.731896 1.08944 0)
(0.779295 1.08797 0)
(0.218103 2.68181 1.39011e-20)
(0.382966 2.48925 2.93469e-19)
(0.494639 2.56244 -1.96863e-19)
(0.310366 2.40425 -7.35127e-20)
(0.103395 2.50948 1.05144e-19)
(0.213085 2.30581 -2.74661e-19)
(0.904108 2.40485 3.72035e-21)
(0.96959 2.3564 0)
(0.810332 2.11346 -1.23073e-19)
(1.06629 2.70989 0)
(1.07883 2.7177 0)
(0.593142 2.32057 8.30823e-20)
(0.993367 3.18924 1.94937e-19)
(0.857168 3.06575 -1.51983e-19)
(0.340007 0.967213 0)
(0.339044 0.801118 -5.17899e-20)
(0.427742 0.749998 -2.34292e-20)
(0.383919 2.08551 0)
(0.515494 2.82699 -1.17271e-19)
(0.431893 2.61521 0)
(0.629476 0.648101 -1.22003e-19)
(0.686238 0.679796 1.51958e-19)
(0.727158 0.619601 -1.47014e-19)
(0.605691 0.624327 -1.81783e-20)
(0.65367 0.584838 -7.41209e-20)
(0.975685 2.81435 -1.47227e-19)
(1.00958 2.88657 1.29403e-19)
(0.595076 2.18891 5.02025e-20)
(0.597038 1.80687 -4.74262e-20)
(0.642012 1.9804 1.3161e-20)
(0.952636 2.5293 -3.68387e-20)
(0.949598 2.51917 -5.22524e-20)
(0.61265 1.96001 -2.84788e-21)
(0.402839 1.4471 -1.04334e-20)
)
;

boundaryField
{
    wall-4
    {
        type            noSlip;
    }
    velocity-inlet-5
    {
        type            fixedValue;
        value           uniform (1 0 0);
    }
    velocity-inlet-6
    {
        type            fixedValue;
        value           uniform (0 3 0);
    }
    pressure-outlet-7
    {
        type            zeroGradient;
    }
    wall-8
    {
        type            noSlip;
    }
    frontAndBackPlanes
    {
        type            empty;
    }
}


// ************************************************************************* //
