/*--------------------------------*- C++ -*----------------------------------*\
| =========                 |                                                 |
| \\      /  F ield         | OpenFOAM: The Open Source CFD Toolbox           |
|  \\    /   O peration     | Version:  4.0                                   |
|   \\  /    A nd           | Web:      www.OpenFOAM.org                      |
|    \\/     M anipulation  |                                                 |
\*---------------------------------------------------------------------------*/
FoamFile
{
    version     2.0;
    format      ascii;
    class       volScalarField;
    location    "4";
    object      p;
}
// * * * * * * * * * * * * * * * * * * * * * * * * * * * * * * * * * * * * * //

dimensions      [0 2 -2 0 0 0 0];

internalField   nonuniform List<scalar> 
918
(
0.326581
0.958073
0.00764117
0.325942
0.00204297
0.927114
-0.705228
0.375775
0.308177
-0.100603
0.021861
0.280843
0.786113
0.55697
-1.47401
0.0233221
0.405795
-0.806117
0.28197
0.0109387
0.59195
0.323281
0.319256
0.282997
0.332793
0.617964
0.664429
0.00423381
0.00222319
0.00629532
0.00367389
0.00330304
0.015504
0.810143
0.861239
0.883952
0.270882
-0.112555
-0.426749
-0.566753
-0.531657
-0.844321
0.374682
0.386619
-0.33589
0.36851
0.379903
0.280245
0.306735
0.307755
0.305773
0.309548
0.314637
0.272231
-0.12766
-0.206322
-0.0775219
-0.0537282
0.0849225
0.0259664
0.0182692
0.0241029
0.0255411
0.227504
0.279123
0.281497
0.29044
0.292799
0.896966
0.868192
0.893559
0.811194
0.826529
0.764173
0.733618
0.573935
0.593075
0.541909
0.538086
-1.87445
-2.68091
-0.963525
-0.675162
0.00252446
0.026538
0.0399499
0.396233
0.41321
0.39853
0.410136
0.67221
-0.66829
-0.904566
0.2887
0.288229
0.317461
0.310141
0.305408
0.295247
0.0137852
0.0202682
0.00518514
0.0109526
0.00398513
0.485902
0.452127
0.27889
0.288721
0.294351
0.308517
0.303632
0.0729329
0.345618
0.360805
0.306791
0.527372
0.567527
0.562159
0.637901
0.604563
0.699779
0.723875
0.00682637
0.00303377
0.0161156
0.0144245
0.0138208
0.264373
0.260724
0.280982
0.27134
0.272325
-0.203267
-0.320949
-0.00406854
0.187394
-0.312248
-0.454526
-0.723462
-0.659204
-0.937554
0.75961
0.378662
0.396788
-0.245105
-0.246638
-0.3752
-0.173011
-0.288661
0.278194
0.280911
0.277988
0.276394
0.278035
0.281917
0.311018
0.308079
0.308591
0.297217
0.363643
0.238981
0.207945
-0.42571
-0.22079
-0.408121
-0.0190725
-0.0145845
0.097897
0.106751
0.0746213
0.0726671
0.00507437
0.00527838
0.0186595
0.0291069
0.0238938
0.221639
0.209946
0.233685
0.243734
0.277609
0.27814
0.276889
0.278336
0.679963
0.703624
0.71257
0.686972
-3.46502
-5.95303
-0.349981
-0.174982
0.00295909
0.00511643
0.00167461
0.00380573
0.00713873
0.00214412
0.0501138
0.0479125
0.0405179
0.0381818
0.389062
0.395687
0.651812
0.711748
0.594785
0.591685
0.284284
0.285787
0.293112
0.288712
0.0255658
0.0211349
0.0254894
0.374239
0.401218
0.39692
0.0379485
-0.0504438
0.117202
0.141386
0.37976
0.371027
0.390691
0.396325
0.438619
0.733567
0.750544
0.749734
0.760882
0.806802
0.82201
0.784179
0.245758
0.255403
0.251153
0.28538
0.277994
0.285908
0.278632
0.276936
0.276228
-0.365299
-0.580456
0.632325
0.506236
0.269443
0.450635
0.735044
0.775901
0.394367
0.385955
0.401359
-0.14441
-0.236346
0.189616
0.165819
0.168969
0.196261
0.18155
0.65554
0.622941
0.669045
0.640918
0.609815
0.628488
-0.605008
-1.51736
-0.940952
0.242528
0.0110493
0.116588
0.066912
0.0515767
0.0553645
0.689511
0.74697
0.394713
0.482524
0.482099
0.507449
0.526795
0.573682
0.507353
0.5343
0.570734
0.558725
0.704802
0.643965
0.722982
0.736922
0.762805
-0.0552165
-0.087498
-0.17912
0.113127
0.145951
0.130719
0.716676
0.722695
0.77771
0.27557
0.286331
0.00929588
0.0172537
0.307531
0.311115
0.00952477
0.0122585
0.0603931
-1.36942
-0.00949699
0.291008
0.282307
0.30339
-0.0861038
0.274295
0.0317118
0.0941188
0.0673418
0.279952
0.235544
0.205776
0.0157893
0.0205665
0.0151984
-0.332294
0.296344
0.277402
0.304201
0.305651
0.308517
0.0143167
0.0113599
0.00966088
0.0105041
0.0150192
0.0192794
0.265249
0.275694
-0.175101
0.299735
0.302766
0.30473
0.290178
0.300783
0.290779
0.0178124
0.013021
0.0100294
0.0345764
0.145077
0.403824
0.630479
0.28451
0.00725389
-0.292722
0.2762
0.354102
0.216892
0.44803
0.354899
0.345567
0.0426912
-0.0601154
0.0246214
-0.0505963
0.28687
0.286225
0.277759
0.279396
0.291621
0.289043
0.297573
0.29185
0.297268
0.302267
-0.025042
-0.0522099
-0.102103
-0.159919
0.288471
0.367038
0.22367
0.228675
0.134346
0.0354957
0.0332222
0.032532
0.0245008
0.0682765
0.0686703
0.0827056
0.0757981
0.0521014
0.0512173
0.0700599
0.0619723
0.0732749
0.277111
0.272413
0.279418
0.29524
0.243355
0.242531
0.215271
0.235242
0.222627
0.177702
0.202397
0.183068
0.0120799
0.0126592
0.0105041
0.0281635
0.0301674
0.0234336
0.0196469
0.00473711
0.00888804
0.0183506
0.0192689
0.0208737
-0.255676
-0.398262
0.620683
0.534004
0.320756
0.287342
0.291011
0.28242
0.287678
0.30304
0.30862
0.302209
0.284944
0.278589
0.276791
0.276429
0.27948
-0.0631925
-0.284666
-0.07632
-0.163228
-0.146888
0.362918
0.150715
0.102308
0.0922764
0.273438
0.33523
0.341351
0.586048
0.663601
-0.964688
-0.52377
-0.822026
-0.361413
-0.669025
0.417771
0.47523
0.481365
0.434015
0.373239
-0.456954
-0.0365454
-0.120409
-0.0518782
0.129132
0.0017635
0.332926
0.35618
0.372901
0.32951
0.351295
0.338929
0.304921
0.314302
0.337205
0.355906
0.198845
0.0631863
0.0213132
-0.00640484
0.374207
0.229454
0.283667
0.233965
0.280664
0.282461
0.282862
0.275311
0.273196
0.273201
0.275792
0.278541
0.286071
0.287087
0.284367
0.286358
-0.0232806
-0.010796
-0.00788842
-0.201219
-0.179233
-0.270527
-0.0902037
0.109156
0.080878
0.279137
0.381386
0.0699023
-0.0917634
-0.0537448
0.0303474
0.164149
0.14613
0.121257
0.146703
0.173801
0.143007
0.202464
0.183534
0.0410204
0.0567569
0.0355261
0.032683
0.095769
0.112452
0.112118
0.0525471
0.0612131
0.0342108
0.0376619
0.0850762
0.0555055
0.0731096
0.0777868
0.0260584
0.0327984
0.0451661
0.0415052
0.0562612
0.0455827
0.269291
0.272917
0.274081
0.275858
0.288185
0.301267
0.277335
0.261395
0.248458
0.255781
0.231054
0.244856
0.238512
0.24646
0.261523
0.26985
0.270932
0.273262
0.260383
0.259543
0.249613
0.250758
0.234923
0.22024
0.207255
0.0256803
0.0153776
0.0197131
0.0262802
0.0144302
0.0161326
0.0530544
0.049347
0.0576211
0.0300385
0.0479957
0.0182462
0.0238678
-0.0668348
0.0500549
-0.235766
-0.292683
-0.3837
0.605519
0.65996
0.529928
0.455711
0.470222
0.558195
0.589858
0.381271
0.4628
0.436736
0.677831
0.689348
0.266462
0.269545
0.282129
0.272345
0.274708
0.0893219
0.204563
0.149141
0.260371
0.100291
0.0745489
0.49702
0.42398
0.511465
0.479651
0.353989
0.370223
0.320411
0.347873
0.353236
0.197154
0.273944
0.294233
0.283305
0.300113
0.314105
0.28709
0.302837
0.278865
0.256679
0.258438
0.209633
0.212195
0.19238
0.19356
0.26512
0.254638
0.258073
0.25468
0.274081
0.295037
0.293589
0.30555
0.313426
0.258812
0.226212
0.22958
0.261132
0.224591
0.234666
0.245712
0.478621
0.513492
0.18258
-0.318958
-0.304655
-0.366874
-0.442751
-0.174362
0.0869349
-0.728309
-0.66477
-1.08706
-0.137585
0.261501
0.194896
0.220872
0.339869
0.277519
0.244719
0.337191
0.365258
0.359775
0.369345
0.378527
0.268391
0.290112
0.261654
0.295582
0.102502
0.182573
0.186608
0.177288
0.096686
0.136534
0.217097
0.183931
0.116087
0.106555
0.241511
0.148222
0.184787
0.225086
0.173837
0.158647
0.26448
0.335409
0.327105
0.293665
0.237111
0.234979
0.261462
0.28654
0.294468
0.309716
0.275718
0.277105
0.275481
0.280228
0.27431
0.275426
0.27631
0.282486
0.280496
0.28961
0.287217
0.0248752
0.0321594
0.00188577
0.000895539
0.0500823
0.0313082
0.0496879
0.0666875
0.0497237
0.054028
0.0278534
-0.00587684
0.0164599
0.0385331
0.17351
0.193919
0.186597
0.132084
0.255599
0.330066
0.382564
0.342445
0.216994
0.240661
0.262396
0.0873436
0.0892622
0.0788025
0.103279
0.106058
0.0357064
0.0280788
0.0282826
0.0448718
0.0388079
0.0267845
0.0257222
0.0290209
0.0269066
0.0334494
0.0281164
0.26544
0.25784
0.245031
0.241838
0.240718
0.257221
0.265397
0.266076
0.271327
0.268992
0.265084
0.267934
0.270972
0.0286334
0.0250813
0.0237821
0.0265352
0.0314982
0.0302029
0.0243136
0.300545
0.16784
0.266314
0.104392
-0.131473
-0.0284585
0.517902
0.623937
0.645372
0.654307
0.582593
0.581452
0.640415
0.689423
0.417006
0.53251
0.474781
0.642975
0.645413
0.678946
0.54534
0.375141
0.0486887
0.174134
0.402234
0.139945
0.203782
0.180138
0.151932
0.223698
0.24826
0.288243
0.355213
0.408424
0.426162
0.317308
0.389342
0.249332
0.350109
0.364743
0.433137
0.374214
0.343916
0.36523
0.38165
0.348107
0.369212
0.32357
0.317075
0.326579
0.340519
0.337031
-0.929071
-0.94226
-1.65081
-1.35181
-1.00982
-0.441838
-0.328259
-0.178575
-0.0967565
0.138011
0.169493
0.220416
0.217223
0.132543
0.185358
0.160887
0.233508
0.230308
0.218308
0.14216
0.094287
0.301866
0.303236
0.3108
0.330753
0.321569
0.337883
0.269299
0.271594
0.272179
0.268003
0.257475
0.258199
0.114342
0.0889992
0.139242
0.1212
0.0832567
0.0696898
0.0412802
0.0301057
0.0265834
0.03004
0.0263692
0.0416928
0.325264
0.325934
0.152804
0.254106
0.0453555
-0.0531935
-0.0935029
0.0993833
0.188704
0.229814
0.459152
0.556565
0.496061
0.522696
0.434341
0.449925
0.576302
0.452455
0.546465
0.456701
0.521068
-0.691388
-0.859033
-0.867169
-0.3826
-0.44205
-0.601169
-0.785041
-0.879448
-0.738033
0.158612
0.171791
0.18505
0.170471
0.189615
-0.483081
-0.280776
-0.402125
-0.132391
0.355721
-0.0706585
0.10519
0.0168353
0.300207
)
;

boundaryField
{
    wall-4
    {
        type            zeroGradient;
    }
    velocity-inlet-5
    {
        type            zeroGradient;
    }
    velocity-inlet-6
    {
        type            zeroGradient;
    }
    pressure-outlet-7
    {
        type            fixedValue;
        value           uniform 0;
    }
    wall-8
    {
        type            zeroGradient;
    }
    frontAndBackPlanes
    {
        type            empty;
    }
}


// ************************************************************************* //
