/*--------------------------------*- C++ -*----------------------------------*\
| =========                 |                                                 |
| \\      /  F ield         | OpenFOAM: The Open Source CFD Toolbox           |
|  \\    /   O peration     | Version:  4.0                                   |
|   \\  /    A nd           | Web:      www.OpenFOAM.org                      |
|    \\/     M anipulation  |                                                 |
\*---------------------------------------------------------------------------*/
FoamFile
{
    version     2.0;
    format      ascii;
    class       surfaceScalarField;
    location    "4";
    object      phi;
}
// * * * * * * * * * * * * * * * * * * * * * * * * * * * * * * * * * * * * * //

dimensions      [0 3 -1 0 0 0 0];

internalField   nonuniform List<scalar> 
1300
(
3.75095
5.62643
-6.48078
3.75095
-6.37441
5.62643
-5.80141
5.80141
-1.69724
1.69724
1.8753
1.87565
-5.64773
5.64773
-5.50617
5.50617
-3.01955
3.01955
-5.24549
5.24549
-5.08628
5.08628
4.67756
-4.67756
-5.23996
5.23996
-2.17568
2.17568
-6.2218
6.2218
3.1268
-3.1268
-5.54698
5.54698
-0.652278
0.652278
-0.583599
4.33455
3.16735
3.16735
-2.80902
2.80902
-4.8302
4.8302
6.22606
-6.22606
9.75308
-9.75308
-3.27231
-3.31548
1.36495
-8.09148
-5.00945
-5.00945
-8.44076
8.44076
-2.81433
2.8121
3.16193
-3.16193
-1.32719
1.32719
-5.40125
-0.400167
-5.40125
6.15945
-0.35804
6.15945
-1.81153
0.11429
-1.81153
4.40596
-4.40596
1.55607
0.141168
1.55607
3.13912
-3.13912
-1.88113
3.75643
1.86983
-1.85206
6.18662
-1.89889
3.77454
-4.97001
4.97001
-5.71805
0.0703212
-5.71805
5.59466
0.0530731
5.59466
-5.40955
5.40955
-5.54269
0.036517
-5.54269
5.50695
-0.000782613
5.50695
3.1971
-3.1971
-3.04291
0.0233593
-3.04291
2.99365
0.0258949
2.99365
0.354093
5.27234
-5.98052
8.79262
-5.27234
0.0268481
5.20977
0.035722
5.20977
-5.11398
0.0277025
-5.11398
5.04413
0.0421487
5.04413
4.62795
0.0496084
4.62795
-4.8403
0.162741
-4.8403
-3.29875
-3.25666
-5.33603
0.0960704
-5.33603
-2.17919
0.00351315
-2.17919
2.12827
0.0474078
2.12827
-3.86459
3.86459
-6.44797
0.226176
-6.44797
3.07109
0.0557111
3.07109
1.85489
1.89607
5.60584
-5.60584
2.47904
-5.5363
-0.0106754
-5.5363
-5.53677
-4.21631
5.53677
0.0102026
-1.16025
0.507976
-1.16025
3.11724
0.0501189
3.11724
2.95851
0.0351446
-2.95851
0.149491
3.62256
-3.62256
2.12273
0.686287
2.12273
-5.56686
5.56686
4.97166
0.0724672
-4.97166
0.141462
6.16206
0.0639979
6.16206
-6.20435
-0.0217092
-6.20435
3.31912
-6.63459
-3.30061
5.11073
0.129223
-5.11073
0.101279
3.18558
-0.023646
3.18558
-3.11352
3.11352
-3.1624
0.000472887
-3.1624
-1.43981
0.112621
-1.43981
1.49443
-0.167235
1.49443
-4.98104
-0.420201
-4.98104
-6.4116
-0.0363722
6.4116
-0.252147
2.86559
-2.86559
-1.95437
0.142847
-1.95437
-4.63645
-0.34459
4.63645
-0.230497
-4.16281
-0.243148
-4.16281
-3.13785
-0.0245587
3.13785
0.0012715
3.11078
0.00646017
-3.11078
-0.0283419
-1.87377
3.76984
-1.87718
3.74701
-4.73476
-0.235247
-4.73476
5.05434
-0.0843343
5.05434
5.93279
0.289011
-5.93279
0.214735
5.5257
0.0689544
5.5257
-5.36657
-0.0429797
-5.36657
5.43953
-0.0299824
5.43953
5.54279
-0.0170894
-5.54279
0.000106398
5.51832
-0.0113648
5.51832
3.26885
-0.0717459
3.26885
-3.19094
-0.00615734
-3.19094
3.11631
-3.11631
3.10217
0.014149
-3.10217
0.059259
-11.1297
11.108
-0.0380837
-11.0916
5.17168
5.17168
3.62289
1.00506
3.62289
-5.0312
0.190899
-5.0312
3.28832
-6.58894
3.27762
-6.57637
3.28808
-11.3796
3.31469
-6.57135
5.45172
-5.45172
5.38598
0.0657411
-5.38598
0.0499526
-2.17536
-0.00383665
-2.17536
-3.72039
-0.144197
-3.72039
4.07692
-0.212325
4.07692
-3.11807
3.11807
-3.09727
-0.0208035
3.09727
-0.026179
5.50204
0.0162714
-5.50204
-0.0342565
1.39763
0.15844
-1.39763
0.237374
3.78054
-0.157978
3.78054
-3.4545
-0.168065
-3.4545
-2.16266
-0.0126975
2.16266
-0.0399301
-5.81267
0.245811
-5.81267
-11.1877
0.0960759
-11.152
-6.10827
-6.10827
2.33249
11.1251
-3.17673
-0.0142093
3.17673
0.00884451
3.13834
-0.0202658
-3.13834
0.0248148
-3.11116
-0.00515835
3.11116
0.00236788
-1.78126
0.341447
-1.78126
-2.26592
2.26592
-1.86178
-0.404135
1.86178
-0.367358
3.05302
-0.187431
3.05302
2.0694
0.0588761
-2.0694
0.115023
-4.05386
-0.108945
-4.05386
5.17172
-0.117375
5.17172
-3.3347
-0.119801
3.3347
-0.0658536
-0.0336511
11.1416
-5.13803
0.0240496
5.13803
-11.2056
11.2297
-2.5274
0.746138
2.5274
1.09549
5.29908
0.267784
-5.29908
0.267876
5.46219
-0.0226598
-5.46219
0.0104722
-3.53199
-0.188406
-3.53199
-4.3686
-0.366162
4.3686
-0.291681
-11.4453
-0.203574
11.6489
-11.4032
6.01625
0.145814
-6.01625
11.3755
-2.59862
-0.266969
2.59862
-0.332703
3.16595
-0.112925
3.16595
3.92387
-0.143323
-3.92387
-0.129999
-5.32164
-0.044933
5.32164
-0.149922
-3.33403
-0.19796
3.33403
-0.168081
-4.18296
4.23308
2.00365
-3.32902
-3.30558
-7.54533
1.80351
1.96633
4.28255
-6.98974
-4.38982
-6.88846
7.34644
-7.07856
-9.47055
9.52016
7.13572
-7.37887
-5.81792
5.79174
6.40101
-6.39974
1.84112
1.91531
10.6455
-10.5752
-10.1872
9.95195
10.2231
-10.1866
10.5341
-10.5771
-12.1617
12.1391
-5.67874
5.7021
-6.59973
6.59357
-6.68245
6.61659
-3.24138
-3.33499
9.03412
-8.93805
11.6567
-11.6674
-11.2549
11.4811
3.30947
0.92361
3.31593
-1.93226
3.77338
-1.84228
3.84593
3.29505
-6.53643
3.29389
-6.59946
5.98654
5.67019
-5.99675
-1.54858
-5.86775
5.84411
-5.79079
5.79316
10.0642
-10.4644
-1.87274
3.78805
-1.87427
3.84059
-3.38788
-2.43004
3.33217
0.950379
5.52291
3.5112
-5.65214
-1.23632
-7.55401
7.41069
-7.78496
7.6169
-0.548674
5.84655
-5.29788
4.28153
-1.48311
7.32966
5.86332
6.05422
5.88668
-5.61889
1.19189
-6.48976
-6.3483
-2.63668
2.77953
2.67413
-2.53296
5.78034
1.35538
5.54984
-5.4416
-1.93727
-5.55055
3.85152
1.94022
3.83071
4.08343
2.31758
4.05888
3.06215
-3.06619
0.00403274
-3.0828
6.14496
0.721866
-5.51284
-4.56246
6.97466
3.67085
7.02774
-7.2196
-3.35559
-7.00486
-6.01447
-4.17273
-6.38064
6.44944
3.50252
6.3651
-7.88958
7.73966
6.73839
3.48473
6.73761
-6.81126
-3.37535
-6.81115
10.2314
-2.64185
-7.58956
-6.79707
-5.36468
6.82706
3.70709
7.44333
4.69576
7.4538
3.50859
6.72283
-7.21567
1.851
-3.81952
-1.85922
-3.76026
3.65406
2.04804
3.67995
-4.17039
-2.42934
-4.1846
-4.18485
-2.49759
4.2566
2.33697
-4.24092
-3.54404
4.36073
2.25587
2.98532
-7.37514
3.58603
-6.92102
-6.25149
-2.68656
-6.20153
3.9587
2.56145
-6.52015
-2.57773
10.7258
-5.05559
9.1772
-7.21926
-4.44815
-7.25351
-8.57483
-2.68011
-8.6112
-5.47623
5.28783
-5.50198
5.28965
10.3628
-5.68308
-4.67968
-3.85939
-2.54035
3.88773
-0.571798
-3.80341
3.80744
-0.0300272
3.8159
4.73951
4.16772
-3.84915
-1.94164
-3.82433
3.83772
1.95543
3.83256
8.36936
1.69484
8.01132
-6.74724
-3.71713
-7.16744
6.49503
-6.3824
2.97641
-2.98911
5.04665
2.57024
-4.88868
-2.66533
5.90923
-2.90105
-3.00818
-12.2768
11.2292
1.04763
-4.94714
-0.665615
-0.013337
-5.65911
-3.81144
5.49637
0.557853
11.787
7.97559
-5.51001
5.75582
6.1389
6.21137
-0.136933
4.78817
-4.04203
3.01923
-1.41539
-1.60384
5.3179
-5.66249
-1.84955
-5.103
3.25345
-0.112646
2.39361
-1.88563
-2.12938
-0.507301
-2.01435
1.69089
0.98324
1.84933
0.957252
1.82227
-2.83994
0.596399
2.24354
-1.88268
-1.93656
-3.40912
-0.991506
4.40063
5.43257
1.97811
-5.30257
-0.247971
2.79083
-2.74342
-0.638226
-2.77089
2.02194
-2.66016
-3.20983
-1.90741
5.11723
-3.33222
-0.492107
3.35249
0.478224
-3.76361
-2.10414
3.76314
0.295736
-3.01933
6.07885
-3.05952
-4.96097
2.59894
3.54602
4.53916
-4.7425
2.39564
2.34686
-1.19648
5.99929
1.02845
6.06824
-9.11637
5.76078
7.67866
3.80246
-7.96767
0.962806
-8.15357
9.57206
-8.35988
-1.21218
4.99551
4.57655
5.13845
5.22432
-3.77196
8.9104
-1.24255
-7.11733
9.39612
-5.59366
5.71548
-11.3091
-10.9398
3.82247
-6.70909
8.38209
-1.673
-2.49731
-5.39227
9.2064
-0.855458
-8.35094
5.50964
-5.29338
-5.31557
10.6089
-7.93523
8.69092
-2.54055
-6.15036
-6.60479
-3.97233
6.64972
1.08994
-9.76431
11.6153
-3.04149
5.85758
0.880027
5.84622
3.80073
-5.89061
2.08987
4.1345
-6.67505
2.47621
-8.36682
-4.75835
9.45983
-4.70147
-7.44492
-6.53934
-0.905575
2.04974
9.56557
-6.7455
5.22133
1.52417
3.31636
0.516205
-3.33051
-0.429751
0.328102
4.36783
-4.69593
4.00805
4.0432
3.37452
0.993308
3.83088
2.01323
-3.83973
-0.34487
-3.92695
1.42936
-1.58998
-3.4232
4.85255
-3.81633
0.393128
-2.64242
-3.44658
6.08901
-4.50165
3.03075
3.0481
4.98618
-4.73955
1.29297
-2.37617
-2.36339
2.52336
-4.11334
1.88036
2.97219
4.13623
0.59219
4.80894
4.65088
-7.37039
0.449375
8.16209
-6.92577
1.64148
5.81233
-6.86281
0.323465
-5.87807
1.12441
-6.18
-5.39573
6.08766
-8.76778
-5.22148
7.86523
0.146097
-7.61308
-0.998122
-3.81503
-1.66121
-4.01299
-1.60581
-3.89617
-5.37777
-1.24747
-4.1303
4.04036
-4.1293
-2.25134
4.42098
0.868675
-4.81868
4.55171
-4.65468
4.54175
0.170906
3.63654
4.33862
1.79827
-2.44006
4.23832
-6.79448
8.48932
-9.57255
2.77807
3.05262
-6.76975
-6.51993
3.69248
2.80255
3.52524
6.37835
-8.38262
2.00426
-6.84222
7.66078
-0.818561
-10.4474
3.60513
-4.069
2.74997
0.226444
2.74613
0.705861
2.3234
-3.02926
-2.28325
-2.32318
-2.20058
-3.17747
5.37804
1.07417
-3.19509
2.12091
-3.22384
4.29802
-0.193493
-3.00159
5.14166
-2.81826
5.36811
-3.41734
1.95077
3.09097
5.20217
-2.11121
4.13145
-1.56121
1.71135
-3.82255
-1.46612
-2.92381
4.97186
-3.16519
3.55832
-0.275928
3.83425
-3.94364
1.04259
-0.569119
3.47408
3.62357
4.03633
-3.04302
2.7944
-4.35561
-1.02815
-3.76342
-0.79123
-3.12163
-4.08462
7.20625
4.76534
-7.88697
-4.85255
7.28136
-2.42881
6.10534
-5.35092
-0.754422
-3.1796
-3.2028
2.83816
1.95001
8.05535
-0.38394
-4.96698
-4.42597
-3.33048
2.25734
0.761882
-3.30251
4.35013
3.31584
-0.922237
0.520491
1.32884
1.96484
-1.44435
0.319416
1.64542
-1.56621
2.05819
0.732637
-2.11707
0.102713
-1.18639
3.20833
1.05715
-2.04039
0.596041
1.25527
-2.67066
4.13441
-1.70938
-2.42503
5.38968
1.45908
-3.16847
3.64391
-3.75656
2.12102
-3.11253
-1.04744
-4.804
-3.44862
-2.34998
4.47089
-3.02807
5.00618
1.26107
-4.75821
6.01927
-3.3751
1.4677
-2.87991
3.61255
-0.922913
-1.957
2.5684
2.54884
-2.7012
-0.069691
-0.132808
2.12258
-2.25539
-0.537586
-2.42027
-4.45438
4.75011
-2.10152
4.49716
2.1368
-1.91116
6.40833
1.79743
-3.7086
-3.16354
-3.65565
-1.36174
3.17742
-0.910275
-5.90088
-7.06064
5.91797
0.150275
-8.95222
10.0808
-1.12853
-5.28138
-0.479404
5.47492
-7.3469
0.671847
-4.87069
5.21007
6.23852
6.38879
-8.2387
-0.112242
-4.73618
1.22913
-5.96531
5.80567
-2.70347
6.52594
-7.07561
4.82427
-6.20693
5.31377
-0.65154
5.47344
-3.38357
2.11612
-6.08845
-4.99852
6.99383
-3.5091
7.87386
-4.05836
11.9322
-7.09985
6.87742
5.0548
-1.3552
-5.89832
-6.84159
5.48639
0.0358268
5.88205
4.79213
-2.7789
4.44726
2.09541
-4.47158
-2.01792
-6.26397
1.79239
-3.21587
-1.85124
3.64363
3.13495
3.65115
1.28025
-3.2214
6.47905
-7.38463
-1.77758
-3.61815
6.73577
-1.24937
3.89239
-7.51054
-2.28761
5.3436
-0.865007
-4.4786
0.339478
-5.56096
2.60473
-8.16569
6.16305
-7.16117
1.56041
-5.62942
-3.25826
-3.59097
-1.34686
-3.30782
-4.66159
3.31474
-1.05646
3.49525
-5.52151
4.65651
-2.13927
5.454
-3.42984
-0.583144
3.59792
0.943829
6.39783
-2.05948
-4.46046
0.329735
3.84725
-4.17699
2.58708
-6.1441
-2.29684
2.6407
2.74898
-5.89415
-0.875599
-5.33606
-2.5791
5.38165
4.70226
9.4676
1.08498
5.84002
-0.458369
6.925
3.06687
2.69951
-3.60605
5.61031
3.60021
6.37828
-0.835539
2.78631
1.91059
1.91411
0.829313
2.22551
1.39806
3.26809
0.238833
-2.08435
4.93417
-8.26464
-0.0328149
-7.25958
2.26059
6.33057
-4.06999
3.17095
-2.40907
-1.00604
-0.743272
-1.48539
2.22866
-2.34711
-2.40762
-0.762203
-1.59016
2.1862
1.61817
-1.42399
-0.923113
0.352706
-3.80133
2.75982
-2.82951
-0.280676
5.7386
-2.4802
0.224808
-1.0125
-2.19546
-2.70276
2.60005
6.09641
0.311919
3.03689
5.06203
2.95789
0.178987
4.33601
-6.00901
-4.0308
-6.12126
-0.315581
5.15933
1.93868
7.62689
6.99348
5.74411
-1.76643
-9.15106
7.30891
-1.6986
6.49035
-2.01175
-6.15393
6.4617
2.02762
-6.6078
-0.553367
-6.7073
-8.4059
-0.478865
5.13537
-5.91897
5.33582
3.67461
0.455688
-2.68963
-0.901334
3.09377
-0.394253
6.53075
-2.12009
-8.07533
10.1954
-4.21048
4.17767
0.972514
3.37762
3.20117
0.792102
-7.28322
-11.3532
-1.52771
-1.14295
-3.95273
0.447891
-2.06606
5.59566
-1.41799
4.84124
8.77742
7.77139
-3.37274
-4.51424
5.80155
-0.960306
6.81108
)
;

boundaryField
{
    wall-4
    {
        type            calculated;
        value           uniform 0;
    }
    velocity-inlet-5
    {
        type            calculated;
        value           uniform -3.75095;
    }
    velocity-inlet-6
    {
        type            calculated;
        value           uniform -5.62643;
    }
    pressure-outlet-7
    {
        type            calculated;
        value           nonuniform List<scalar> 8(6.48078 6.37441 6.58779 6.72653 6.55541 6.61973 6.56594 6.60277);
    }
    wall-8
    {
        type            calculated;
        value           uniform 0;
    }
    frontAndBackPlanes
    {
        type            empty;
        value           nonuniform 0();
    }
}


// ************************************************************************* //
