/*--------------------------------*- C++ -*----------------------------------*\
| =========                 |                                                 |
| \\      /  F ield         | OpenFOAM: The Open Source CFD Toolbox           |
|  \\    /   O peration     | Version:  4.0                                   |
|   \\  /    A nd           | Web:      www.OpenFOAM.org                      |
|    \\/     M anipulation  |                                                 |
\*---------------------------------------------------------------------------*/
FoamFile
{
    version     2.0;
    format      ascii;
    class       volVectorField;
    location    "4";
    object      U;
}
// * * * * * * * * * * * * * * * * * * * * * * * * * * * * * * * * * * * * * //

dimensions      [0 1 -1 0 0 0 0];

internalField   nonuniform List<vector> 
918
(
(0.984798 -0.014498 0)
(0.00460821 2.96639 0)
(-0.0161522 1.72088 0)
(0.949192 0.0230315 0)
(-0.0104575 1.70115 -1.68072e-21)
(-0.00696602 2.94874 -8.55111e-19)
(1.07661 1.52054 2.54762e-19)
(0.573884 0.304301 -3.34675e-21)
(0.998548 -0.00104779 0)
(0.0104968 1.69806 0)
(0.0128932 1.67049 0)
(0.916619 0.0161993 0)
(0.0122326 2.92973 0)
(-0.0153236 2.80964 0)
(-0.030264 3.1815 5.13602e-19)
(0.00413824 1.66443 -9.30142e-21)
(0.702002 0.141655 2.50028e-19)
(0.248895 1.97129 2.52505e-19)
(0.949898 0.0238957 0)
(0.00644848 1.68495 0)
(0.234541 0.283572 -2.41988e-19)
(0.980653 -0.0107411 0)
(0.980677 -0.017164 0)
(0.965911 -0.00753358 0)
(0.844177 0.021406 0)
(0.0383972 2.61821 0)
(-0.0127408 2.9156 2.82548e-19)
(-0.00910281 1.72814 0)
(-0.00209087 1.75705 0)
(-0.00097477 1.73228 0)
(0.00891783 1.78742 0)
(-0.00684415 1.71462 1.30476e-21)
(6.54461e-05 1.65559 0)
(-0.0208888 2.9876 -3.00598e-23)
(-0.0170733 3.00555 6.7987e-19)
(0.00210295 3.00058 0)
(0.96044 0.00185588 0)
(0.338724 0.494107 -4.7619e-20)
(1.00545 1.56608 -2.32608e-19)
(1.13956 1.27896 2.81828e-19)
(0.875613 1.77503 -5.90596e-20)
(0.950171 1.75267 3.68989e-19)
(0.609414 0.335588 3.26337e-21)
(0.580256 0.290436 0)
(1.25704 0.648809 0)
(0.597764 0.350693 1.46992e-20)
(0.537481 0.331587 -1.52619e-20)
(0.952183 -0.00598078 0)
(0.998459 0.00130897 0)
(0.999607 0.000873117 0)
(0.983077 -0.0313493 0)
(1.00113 -0.00233183 0)
(1.00635 -0.000497044 0)
(0.00662552 1.62038 -2.0806e-19)
(0.00620481 1.77201 0)
(0.0587937 1.7368 0)
(0.00612205 1.76898 0)
(0.00819566 1.68364 0)
(0.00254992 1.66469 0)
(0.00859089 1.72344 0)
(0.0126857 1.67908 0)
(0.00388547 1.72268 0)
(0.00849224 1.66741 0)
(0.964484 -0.00480185 0)
(0.949767 0.00714373 0)
(0.91599 0.0108159 0)
(0.934112 0.0115132 0)
(0.910564 -0.00854079 0)
(0.0154255 3.00048 3.07298e-19)
(0.01202 3.00619 0)
(0.00690679 3.00359 0)
(0.0145176 2.9964 3.39492e-24)
(0.00862015 2.95864 -4.64221e-19)
(0.0157443 2.9824 0)
(0.0126 2.9037 0)
(0.0125601 2.93386 6.12428e-25)
(-0.00654822 2.83235 0)
(0.0180518 2.92268 0)
(-0.0252144 2.76926 0)
(0.217169 3.4897 0)
(-0.148416 3.54955 0)
(0.108998 3.26571 -4.73328e-19)
(-0.00768433 3.01773 0)
(0.00531736 1.74831 0)
(-0.000637421 1.72323 9.17359e-21)
(0.015182 1.67388 -1.46595e-20)
(0.734328 0.173699 -8.67124e-20)
(0.708595 0.109535 -8.75008e-20)
(0.723899 0.213233 -2.58578e-19)
(0.671072 0.191462 -1.69411e-19)
(0.188318 1.34627 0)
(0.343773 2.0498 -2.64577e-19)
(0.479585 2.0211 4.48206e-19)
(0.973483 0.0093203 0)
(0.931903 0.0101736 0)
(1.00443 -0.00108578 0)
(0.992435 0.0294024 0)
(0.990971 0.0210138 -6.19616e-19)
(0.984675 0.0397787 4.72716e-19)
(0.00236648 1.72746 0)
(-0.00584344 1.68549 0)
(0.000468495 1.74213 0)
(0.00821047 1.73129 0)
(0.00956317 1.68156 0)
(0.294907 0.43876 6.77872e-20)
(0.44472 0.348221 0)
(0.983399 0.00859284 0)
(0.944442 0.0163859 0)
(0.926193 -0.00273236 0)
(0.907136 0.0197232 0)
(0.902351 -0.00369252 0)
(1.0882 0.00141535 0)
(0.846039 0.0640055 0)
(0.767659 0.0177914 3.60561e-19)
(-0.0353934 2.86241 1.33914e-19)
(0.0365793 2.92063 0)
(0.0622758 2.89078 0)
(-0.00818182 2.71499 0)
(-0.0154311 2.98835 2.60681e-19)
(-0.0243279 2.89683 0)
(-0.0145493 2.99067 -8.23764e-19)
(-0.00937029 2.92876 2.85149e-19)
(-0.000730418 1.77012 0)
(0.00216207 1.7649 0)
(-0.00740895 1.71876 -1.56261e-22)
(0.00236859 1.70488 0)
(-0.00999636 1.65379 0)
(0.989491 0.0065719 0)
(0.961684 0.00420956 0)
(0.939033 -0.00285167 0)
(0.987608 0.0106144 0)
(0.960654 0.00757636 0)
(0.523593 0.80658 5.38294e-20)
(0.338614 0.706427 0)
(0.605631 0.781951 -2.23981e-21)
(0.393992 0.502647 0)
(1.08341 1.32436 -7.41976e-20)
(1.18728 1.02181 1.60369e-19)
(0.551061 2.03556 0)
(0.709353 1.94356 0)
(0.746181 1.93758 0)
(0.563441 1.11671 -1.39418e-19)
(0.64687 0.314453 0)
(0.624729 0.245706 4.56206e-20)
(1.15188 1.0925 0)
(1.20165 0.898852 0)
(1.22032 0.822279 -1.34405e-19)
(1.22592 0.699804 0)
(1.27157 0.442052 2.55288e-20)
(0.984581 0.00086822 0)
(0.978819 -0.0037338 0)
(0.951969 -0.00633297 0)
(0.971335 0.0101397 0)
(0.977107 0.00737143 0)
(0.943864 0.0110869 0)
(1.00037 0.00384877 0)
(0.99802 0.00169569 0)
(0.999486 0.000522022 0)
(0.0156102 1.64564 1.1191e-19)
(0.0554909 1.5699 0)
(-0.0137638 1.66141 1.85449e-19)
(-0.0100884 1.611 -1.58136e-19)
(0.174985 1.93508 -2.07179e-19)
(0.0476461 1.8044 0)
(0.105778 1.81343 0)
(0.0121092 1.7451 0)
(-0.00782572 1.67244 0)
(0.000610066 1.69816 -5.26859e-22)
(-0.00576773 1.65645 0)
(-0.00265579 1.71208 -2.55643e-20)
(-0.00619134 1.66896 4.96891e-20)
(-0.0220477 1.73304 0)
(-0.00514747 1.73771 0)
(-0.0154254 1.67422 0)
(-0.000421058 1.7214 0)
(-0.00294808 1.67506 0)
(1.00979 0.0112658 0)
(0.989481 0.0128684 0)
(1.00064 0.00566233 0)
(0.967269 0.00519599 0)
(0.941178 -0.00834174 0)
(0.975333 -0.000555906 0)
(0.966162 0.0136425 0)
(0.939818 -0.00521618 0)
(0.00639124 3.06477 -2.55597e-21)
(0.0199513 3.06017 0)
(0.0160127 2.97021 0)
(0.0132318 2.8755 0)
(0.753196 3.79533 0)
(1.04359 2.9519 4.16878e-19)
(0.0704965 3.11422 0)
(-0.0144142 2.91247 0)
(-0.00221797 1.75463 0)
(0.00358023 1.75223 0)
(0.0019879 1.75104 0)
(0.0147185 1.77781 2.43622e-21)
(0.00884336 1.74762 0)
(0.00568427 1.76114 0)
(-0.00658143 1.67995 6.4027e-22)
(-0.00776092 1.72198 1.70409e-20)
(0.00996272 1.72314 1.49042e-20)
(0.00758598 1.67228 0)
(0.761458 0.126773 1.32836e-19)
(0.726397 0.0748221 -1.28638e-19)
(0.175019 1.4205 0)
(0.276219 1.32496 -8.92486e-20)
(0.124496 1.42761 -2.6328e-19)
(0.141173 1.3847 2.62723e-19)
(0.943478 -0.00944749 0)
(0.973165 -0.00373854 0)
(0.96258 -0.00577183 0)
(0.933923 0.00182696 0)
(-0.00041551 1.72134 0)
(-0.00635753 1.71726 0)
(-0.00135954 1.67085 0)
(0.557072 0.380099 1.31384e-19)
(0.494124 0.399603 -1.62605e-19)
(0.507566 0.337495 0)
(1.19517 0.0832655 2.54348e-21)
(1.18691 0.0323424 0)
(1.11512 0.0382482 0)
(1.04083 0.00730422 0)
(0.782421 0.096503 0)
(0.801074 0.0575091 -5.82908e-19)
(0.749298 0.0270283 2.2352e-19)
(0.000152606 2.98333 1.83455e-19)
(-0.038854 2.86358 2.47773e-20)
(0.00306271 3.04696 -5.42469e-21)
(0.0155863 3.04577 2.0511e-19)
(-0.0146109 2.99556 9.49186e-21)
(-0.0124176 2.95039 -3.87254e-23)
(-0.0170288 3.01211 -1.7953e-19)
(0.0119228 3.0273 1.26356e-19)
(0.00667572 3.03268 -2.02139e-19)
(0.99773 0.0145478 0)
(1.00154 0.000715606 0)
(0.959018 0.0116218 0)
(0.979679 -0.013131 0)
(0.982796 -0.000334594 0)
(0.948539 -0.0137216 0)
(0.973338 0.00593343 0)
(0.973098 0.00155959 0)
(0.943173 0.00573193 0)
(0.488758 0.980635 1.49359e-19)
(0.492428 1.04347 0)
(0.561877 0.87006 3.63793e-20)
(0.631946 1.00612 2.44132e-19)
(0.632422 0.875422 -1.09174e-19)
(0.493714 0.679043 1.95322e-19)
(0.483914 1.28939 6.76109e-19)
(0.482702 1.18083 1.36681e-19)
(0.695107 0.245384 1.80894e-19)
(0.678481 0.275333 4.27774e-20)
(0.661079 0.214115 8.82975e-20)
(1.26635 0.506574 7.52209e-20)
(1.27594 0.299539 8.61743e-20)
(-0.00306614 1.66608 7.37563e-20)
(0.0179176 1.62687 0)
(1.06212 0.0240558 0)
(1.0355 0.0141071 0)
(1.00991 -6.15687e-05 0)
(0.0102742 3.07404 0)
(0.0124992 2.94255 3.56087e-19)
(0.0173839 2.95493 0)
(0.00712703 2.84975 -3.55231e-19)
(0.00775012 3.08689 8.27782e-20)
(0.00552567 3.07875 0)
(0.578242 1.38513 -7.8954e-20)
(0.951206 2.02943 1.29265e-19)
(0.557944 1.54058 -4.4255e-19)
(0.0201056 2.99419 -1.24672e-19)
(0.0427228 3.02735 0)
(-0.0225507 2.87755 0)
(0.00210904 1.70634 -2.89091e-21)
(0.00141051 1.72744 -3.63842e-20)
(0.0109266 1.68373 -2.64456e-21)
(0.251213 1.37704 2.80582e-19)
(0.336134 1.29613 -1.93034e-19)
(0.0453719 1.58218 1.80043e-19)
(0.0752105 1.49439 -2.12392e-19)
(0.0783237 1.46062 1.90368e-20)
(0.0181544 3.10538 -4.75297e-19)
(0.024819 3.11189 5.44108e-19)
(-0.0208381 2.98281 2.28229e-19)
(-0.0135865 2.97438 -2.04472e-19)
(-0.0334931 2.87936 -2.32575e-19)
(0.0162687 3.09832 -6.08473e-19)
(0.0172623 3.0999 6.24462e-19)
(0.54619 1.20708 0)
(0.589578 1.13192 -6.24804e-19)
(0.574893 1.02825 2.81703e-19)
(0.410684 1.29825 3.77755e-19)
(0.449168 1.19069 -5.88928e-19)
(1.26507 0.177266 -4.47244e-21)
(1.2682 0.335922 0)
(1.25651 0.13306 3.23902e-20)
(-0.00565765 1.70669 -6.23473e-22)
(0.0132253 1.68864 0)
(0.0125607 1.65744 0)
(0.31253 1.34417 -9.87175e-20)
(0.376538 1.32243 -2.43077e-19)
(0.395026 1.23497 4.38178e-19)
(0.996513 -0.0411068 0)
(1.00658 -0.0489702 1.13696e-19)
(-0.000949793 1.76958 0)
(-0.00201384 1.77663 0)
(1.01401 0.0133025 2.09282e-21)
(0.995748 0.0170282 2.33656e-19)
(0.00987708 1.7765 -3.26169e-21)
(0.000834697 1.7768 0)
(0.0630946 3.21696 1.39871e-20)
(0.328321 3.58211 0)
(1.0692 0.664183 -2.95791e-21)
(1.00978 -0.0105093 -6.9657e-22)
(1.01131 0.00642848 0)
(1.00716 -0.00357345 -9.56495e-22)
(0.0377346 1.8461 0)
(0.0770728 1.68134 0)
(0.0107766 1.79049 0)
(0.00996385 1.75782 3.53672e-20)
(0.0205645 1.75689 1.89208e-20)
(0.990635 0.00567544 4.83162e-22)
(1.04161 -0.00664707 0)
(1.05295 0.0223624 0)
(-0.00299945 1.75149 0)
(-0.0117094 1.78281 0)
(-0.0130068 1.7776 0)
(0.249196 1.95478 -1.03644e-19)
(0.984865 -0.0268509 0)
(0.98485 -0.0136526 0)
(1.01498 -0.0118417 1.4816e-19)
(1.01586 -0.0189862 -1.70992e-19)
(1.01488 -0.010699 0)
(-0.00703334 1.7497 0)
(0.00551549 1.75903 0)
(-0.00211193 1.75652 0)
(-0.00270259 1.783 0)
(0.00184762 1.7758 0)
(-0.00217194 1.78047 0)
(1.01991 0.00597579 0)
(1.01388 -0.000930035 -4.54162e-22)
(0.763917 1.52042 1.16543e-19)
(1.00808 -0.00574017 -1.45376e-19)
(1.0243 0.012891 1.7696e-19)
(0.999213 0.00154473 0)
(1.01321 -0.00128051 1.40679e-19)
(0.998166 0.0183691 -1.75599e-19)
(0.995869 0.0192567 0)
(-0.0153024 1.78345 0)
(-0.0094937 1.77836 6.10886e-21)
(-0.0122221 1.78096 -3.97816e-21)
(1.16484 0.239608 6.35169e-20)
(1.09484 0.0585624 0)
(0.138502 3.06397 -2.29569e-19)
(0.0763635 2.8495 -2.06958e-20)
(0.21505 3.23796 3.09371e-19)
(0.166151 3.28381 2.306e-20)
(0.171131 3.30824 0)
(0.0327855 3.14405 4.60147e-20)
(0.111103 3.17943 2.22379e-19)
(0.100443 3.2205 -9.18529e-20)
(0.0639092 3.1078 0)
(0.701211 0.350468 0)
(0.637367 0.410366 0)
(1.01217 0.674657 -2.6061e-21)
(1.09909 0.813034 1.43644e-20)
(1.11359 0.51779 0)
(1.18398 0.496486 0)
(1.01642 -0.00687341 -2.66592e-19)
(1.01632 -0.00702163 3.28006e-19)
(1.01528 0.0125838 0)
(1.01399 0.013898 0)
(1.01042 0.00924461 0)
(1.02227 -0.00254377 0)
(1.01142 -0.00248257 0)
(1.03149 -0.0109671 0)
(1.02315 0.0129646 0)
(1.02609 0.0118473 0)
(0.0328225 1.84314 0)
(0.0240462 1.84797 0)
(0.0439377 1.86435 0)
(0.0610373 1.87973 0)
(0.0969335 1.67705 0)
(0.112388 1.66179 -1.2208e-19)
(0.0438365 1.70968 0)
(0.0121648 1.70044 6.53272e-20)
(0.038684 1.75625 -6.32085e-20)
(0.0102658 1.79051 0)
(-0.004705 1.78633 0)
(0.0115316 1.79138 0)
(0.00640199 1.80435 0)
(-0.00140136 1.75405 -2.3141e-20)
(0.0111516 1.76004 2.6237e-20)
(0.00732865 1.76109 3.51732e-20)
(0.0137973 1.76461 0)
(0.0191148 1.76901 -4.24981e-20)
(0.00733391 1.7668 -2.74768e-20)
(0.0023784 1.74385 1.80875e-20)
(0.00809756 1.74991 -3.36742e-20)
(0.00606558 1.75455 -4.23598e-20)
(1.0015 0.0180966 2.55607e-19)
(1.00157 0.0173044 -3.14517e-19)
(0.992673 0.00911175 -2.62092e-19)
(0.962326 0.00272781 3.37366e-19)
(1.03901 -0.00121099 0)
(1.04924 -0.0092158 0)
(1.05123 0.0323954 0)
(1.04977 0.0135072 0)
(1.0617 0.0287225 0)
(1.08299 0.0669211 0)
(1.06412 0.0311823 0)
(1.07668 0.0425836 0)
(0.0039502 1.77167 -8.98621e-22)
(-0.0147331 1.75515 0)
(0.0057521 1.75488 0)
(0.00062972 1.77977 8.04831e-21)
(-0.00357137 1.78063 -3.50266e-22)
(-0.00434969 1.7175 1.00939e-20)
(-0.00223694 1.73657 -1.01974e-20)
(0.00582916 1.76324 0)
(0.00824418 1.75748 0)
(0.00766003 1.7576 0)
(-0.0138447 1.77781 0)
(-0.0118068 1.77204 0)
(0.385514 1.92285 1.62371e-19)
(0.39902 1.93459 8.16799e-20)
(0.287246 1.52594 -6.90198e-20)
(0.124954 1.54782 1.80373e-19)
(0.286046 1.63681 4.63144e-20)
(1.0037 0.0109313 0)
(0.989716 -0.0022478 0)
(0.996068 0.00762648 0)
(1.03194 -0.00958176 0)
(1.01545 -0.0168719 0)
(1.01619 -0.0193192 0)
(0.990556 0.0152353 0)
(1.02032 0.0376506 0)
(1.00951 0.00743774 2.53488e-19)
(1.01476 0.0148224 -3.22823e-19)
(1.01221 -0.0101865 -2.55772e-19)
(1.01228 -0.00949395 3.17417e-19)
(0.76215 1.60834 0)
(0.694756 1.72002 1.21413e-19)
(0.839168 1.43938 4.35265e-20)
(0.897112 1.32716 -5.78123e-20)
(0.822596 1.89671 -1.68207e-19)
(0.841169 0.115066 1.37877e-19)
(1.09957 0.0852546 0)
(1.14093 0.165533 -5.04755e-20)
(1.12881 0.128382 -1.84074e-21)
(0.960122 0.123532 0)
(0.277489 3.04233 -1.29099e-19)
(0.209792 2.88563 -2.99869e-19)
(0.151346 2.25399 2.35796e-19)
(0.153761 0.278113 -8.23002e-20)
(0.248204 3.49508 -2.51186e-19)
(0.188025 3.41861 0)
(0.220372 3.45753 3.26926e-19)
(0.326492 3.22324 1.3562e-19)
(0.396547 3.3634 0)
(0.0144504 3.11118 1.23961e-20)
(0.0297878 3.12567 -1.58464e-19)
(0.0315431 3.11498 2.3242e-19)
(0.0510956 3.1431 0)
(0.0542691 3.15828 0)
(0.731097 2.22803 0)
(0.309136 0.562352 2.55315e-20)
(1.03509 1.08343 -1.71549e-20)
(0.919582 1.15338 0)
(0.685933 1.0406 -2.91688e-20)
(0.934634 0.903769 7.94245e-21)
(0.510615 0.634504 -1.42637e-19)
(0.708934 0.342863 -9.65905e-21)
(0.708446 0.315727 9.00128e-20)
(0.623462 0.425821 6.11732e-21)
(0.606967 0.419459 -2.52515e-19)
(0.7026 0.35823 0)
(0.69588 0.408372 1.31195e-19)
(0.700399 0.391968 0)
(0.664165 0.385159 0)
(0.670043 0.351722 0)
(0.708036 0.606207 7.15686e-20)
(1.16108 0.262982 -5.73593e-20)
(1.16373 0.400496 0)
(1.17846 0.363908 0)
(0.785117 0.229534 1.45267e-19)
(0.772377 0.485237 -7.67783e-20)
(0.708757 0.452036 1.2691e-19)
(0.854127 0.410352 -1.42238e-19)
(1.01189 0.0129143 1.74615e-19)
(1.01609 -0.00908531 -1.74726e-19)
(1.01509 0.00240802 0)
(1.01635 0.00235177 0)
(1.02237 -0.00642013 -1.64272e-19)
(1.02085 -0.0124382 1.62436e-19)
(1.0071 -0.00163634 0)
(1.00269 -0.00134362 0)
(1.02171 -0.00694771 0)
(1.0177 -0.00869117 0)
(1.00313 -0.00342725 0)
(1.00924 0.00709871 0)
(0.0245167 1.84246 0)
(0.0236536 1.83625 0)
(0.101875 1.82218 -1.32842e-20)
(0.244112 1.92148 5.22358e-20)
(0.126427 1.91266 1.11919e-19)
(0.162566 1.94199 -1.81848e-19)
(0.18519 1.86731 0)
(0.133739 1.75997 -4.00457e-20)
(0.109689 1.78078 0)
(0.273802 1.6843 -6.68198e-20)
(0.193173 1.61663 2.17583e-19)
(0.193092 1.77791 3.48974e-20)
(0.258344 1.86191 1.59362e-20)
(0.212731 1.85654 -1.27888e-20)
(0.302539 1.7949 -3.87451e-20)
(0.247064 1.73627 0)
(0.251581 1.74579 3.62692e-20)
(0.0389331 1.75182 -2.08924e-20)
(0.0438725 1.74837 0)
(0.0530057 1.72967 7.76906e-20)
(0.0529219 1.74214 0)
(0.0172157 1.7136 -7.18842e-20)
(0.0266595 1.7366 0)
(0.00295575 1.76667 -1.48499e-20)
(-0.000609628 1.7665 0)
(0.00868937 1.76743 0)
(0.011211 1.76338 1.67383e-20)
(0.00321281 1.76042 -1.38612e-21)
(0.0141271 1.76279 7.55968e-20)
(0.0045299 1.76224 5.21921e-22)
(0.00076525 1.74766 1.37508e-20)
(-0.00466636 1.74405 9.84075e-21)
(-0.0062056 1.78417 0)
(-0.00495553 1.77931 0)
(0.0157356 1.74348 4.7973e-20)
(0.026122 1.75905 3.48903e-20)
(0.0140482 1.74693 -4.9411e-20)
(0.0197441 1.74776 0)
(0.013269 1.76814 -2.64224e-20)
(0.0169106 1.77164 1.35108e-20)
(0.018751 1.75864 -4.65156e-21)
(0.00450477 1.74243 -1.67829e-20)
(-0.00364763 1.74893 -7.1292e-21)
(0.0161941 1.75833 2.76903e-20)
(1.01265 -0.00410573 -1.68534e-19)
(1.00273 0.0229345 1.6927e-19)
(1.00722 0.008248 0)
(0.981806 0.0559993 2.36727e-19)
(0.954423 0.0288608 -2.72096e-19)
(0.931864 0.0275204 3.06897e-19)
(0.972757 0.0534317 -3.15953e-20)
(1.03215 0.0106136 0)
(1.04363 -0.0100904 1.52322e-19)
(1.03287 -0.00627399 -1.5079e-19)
(1.00686 0.0238135 -8.712e-21)
(1.0173 0.0195926 7.60909e-20)
(0.993648 0.0493867 0)
(0.987763 0.042195 -2.75215e-20)
(1.01057 0.0370092 0)
(1.00289 0.0266479 0)
(1.00997 0.00700673 0)
(1.01328 0.00596193 0)
(1.00908 0.0205479 5.64098e-20)
(1.00076 0.00487684 -1.25141e-19)
(0.963799 0.00966289 -6.00164e-20)
(0.977977 0.0158205 -6.62928e-20)
(0.990672 0.0588531 1.25684e-19)
(1.04551 0.0607137 0)
(1.02914 0.0834691 0)
(-0.00397108 1.77352 -1.41596e-20)
(-0.0226405 1.76167 -9.71882e-22)
(-0.0139093 1.7568 0)
(-0.0153881 1.77834 1.4008e-20)
(-0.00616893 1.7763 1.76651e-21)
(-0.0140798 1.78032 -1.72802e-21)
(0.000238428 1.76756 2.3469e-20)
(0.00200428 1.75641 -1.36181e-21)
(-0.0074403 1.7526 7.9061e-21)
(0.00530652 1.78065 -1.10341e-20)
(-0.00408924 1.76705 1.3666e-20)
(0.00634753 1.73038 5.47473e-22)
(0.00617937 1.71407 1.18508e-20)
(0.363685 1.81782 -6.2051e-20)
(0.302585 1.79506 4.72157e-20)
(0.677598 1.79831 -1.17092e-19)
(0.541522 1.88982 -7.85816e-20)
(0.574786 1.86496 0)
(0.326012 1.52694 7.21557e-20)
(0.368458 1.51351 1.01562e-19)
(0.165863 1.54757 1.58047e-20)
(0.167304 1.54461 -2.50487e-19)
(0.230509 1.54833 2.001e-19)
(0.260448 1.55091 0)
(0.186329 1.54723 -1.54278e-19)
(0.134644 1.62813 3.0937e-19)
(0.127612 1.57053 -2.08682e-20)
(0.102917 1.59918 -4.16165e-19)
(0.680874 1.45608 3.9265e-19)
(0.473273 1.49989 0)
(1.0278 -0.0024959 5.21591e-21)
(1.02114 0.0440585 -4.43627e-21)
(1.01138 0.0311867 -8.13994e-20)
(1.00548 0.0181115 8.37201e-20)
(1.01292 0.0130752 0)
(0.553639 1.58949 0)
(0.450741 1.49875 0)
(0.577076 1.24495 0)
(0.399258 1.45114 0)
(0.808838 1.84227 8.23906e-20)
(0.900153 1.64729 0)
(0.626202 1.77098 2.87976e-21)
(0.509714 1.60835 0)
(0.609801 1.57787 -2.74143e-19)
(0.632542 1.62114 1.75042e-19)
(0.858768 0.147974 0)
(0.832132 0.158007 3.82865e-20)
(0.901793 0.111204 2.08049e-19)
(0.861633 0.098584 -7.93399e-20)
(0.866326 0.06633 -2.51343e-19)
(0.987633 0.205449 -1.69085e-19)
(0.925664 0.265435 -5.29369e-21)
(0.8476 0.25549 1.7998e-19)
(0.908699 0.216594 1.57858e-19)
(0.922623 0.131923 -2.67736e-19)
(0.908772 0.14399 3.35519e-20)
(0.840084 0.235717 -7.19411e-20)
(0.895077 0.197295 0)
(0.959645 0.149945 1.31593e-19)
(0.952311 0.158644 0)
(0.944986 0.204646 0)
(1.05132 0.0995553 5.8094e-20)
(0.967102 0.16842 -5.31668e-21)
(0.987818 0.194201 -3.04763e-20)
(1.02879 0.207568 0)
(1.00878 0.0418912 1.27861e-19)
(1.00556 0.0450767 1.58103e-19)
(1.00943 0.0465597 -1.24369e-19)
(1.0096 0.0558451 -1.07064e-19)
(0.987267 0.0625467 -1.68376e-19)
(0.963317 0.0790928 0)
(0.954756 0.0493285 0)
(0.924477 0.0653998 -1.09285e-19)
(0.908544 0.0647295 4.40752e-20)
(1.00101 0.0720037 1.47303e-19)
(0.987435 0.0848852 -1.6645e-19)
(0.991718 0.09881 1.45894e-19)
(0.981399 0.104097 0)
(0.993889 0.0756106 0)
(0.995954 0.0724179 -6.92104e-20)
(1.00293 0.077829 -1.19272e-19)
(0.292334 1.75183 1.26845e-19)
(0.326137 2.11413 -1.25646e-19)
(0.664603 2.32905 -5.24012e-20)
(0.690824 2.87916 -2.84914e-20)
(0.865938 2.15567 2.41546e-19)
(0.852476 2.28175 -1.51098e-19)
(0.80521 1.70932 2.95656e-22)
(0.687469 2.63428 2.62938e-20)
(0.771204 2.48121 2.0644e-20)
(0.721986 3.07179 -1.21152e-19)
(0.918097 2.66912 1.40514e-19)
(0.908487 2.66431 0)
(0.20323 0.545578 -1.40679e-22)
(0.540914 1.43934 7.29137e-20)
(0.761833 0.557485 1.04363e-19)
(0.73789 0.443033 1.58593e-19)
(0.603978 0.442231 1.40161e-19)
(0.620102 0.441957 -1.81455e-19)
(0.601109 0.491793 1.3601e-19)
(0.605231 0.472355 -6.84363e-20)
(0.557678 0.48212 1.75247e-19)
(0.784348 0.264167 -8.23231e-20)
(0.744055 0.294257 0)
(0.753467 0.262297 4.11075e-21)
(0.65226 0.465109 6.69627e-20)
(0.651411 0.420228 -2.4741e-19)
(0.620217 0.436034 8.8119e-21)
(0.636791 0.438617 0)
(0.466359 0.674041 4.08823e-20)
(0.685534 0.808909 7.85762e-20)
(0.576864 0.8093 -8.90484e-20)
(0.700845 0.815979 -3.2434e-20)
(0.795701 0.883747 -8.17785e-21)
(0.788733 0.882291 8.38352e-21)
(0.794126 0.565273 -1.26335e-19)
(0.803904 0.653356 3.02721e-20)
(0.886696 0.721121 0)
(0.886196 0.692653 -3.39748e-20)
(0.929285 0.277084 4.16068e-20)
(1.06569 0.272206 4.13897e-20)
(0.996769 0.236412 6.74108e-20)
(0.904654 0.369948 -8.93799e-20)
(0.989013 0.400221 0)
(1.00802 0.400276 0)
(0.852434 0.344273 5.54718e-21)
(0.797698 0.288425 0)
(0.809133 0.281102 9.12482e-20)
(0.859389 0.264369 -6.29903e-21)
(0.847675 0.406623 3.93116e-19)
(0.837414 0.446732 1.04779e-19)
(0.807854 0.417885 -1.16453e-19)
(0.734568 0.388229 1.24747e-19)
(0.729463 0.393229 7.45965e-20)
(0.714767 0.402863 -7.27347e-20)
(0.991775 0.00825267 1.39341e-19)
(1.00363 -0.00849928 0)
(1.01025 -0.000905607 9.18682e-20)
(1.00794 0.00197093 -2.0669e-19)
(1.01116 -0.00221122 9.95012e-20)
(1.01654 0.0195709 -2.10358e-19)
(1.00757 0.0037591 0)
(0.99897 -0.00914333 -4.42526e-20)
(1.00558 0.00591087 1.10203e-19)
(1.01331 0.00426664 -5.63602e-20)
(1.005 -0.00429371 4.16361e-20)
(0.00733187 1.80822 0)
(0.0101105 1.77514 0)
(0.0157117 1.83196 0)
(0.011558 1.8216 0)
(0.0436103 1.76818 3.35581e-20)
(0.0370055 1.78638 -8.67323e-21)
(0.0837656 1.76957 -1.63354e-20)
(0.0626183 1.76457 3.10395e-21)
(0.0328103 1.76468 -3.18972e-20)
(0.0277701 1.76465 2.37092e-20)
(0.0433731 1.77322 -1.37581e-20)
(0.0275767 1.79306 -4.90371e-21)
(0.0284567 1.78747 -4.151e-22)
(0.0157408 1.77096 -3.31234e-21)
(0.0489036 1.72111 -8.21145e-20)
(0.0466556 1.70681 0)
(0.0825223 1.70009 5.1013e-20)
(0.0840552 1.76807 3.18053e-20)
(0.214244 1.69338 -3.62787e-20)
(0.17512 1.66307 0)
(0.172053 1.62727 -2.27571e-19)
(0.196948 1.64782 1.61036e-19)
(0.155751 1.7171 -9.64208e-20)
(0.120024 1.69564 5.43744e-20)
(0.108683 1.66751 0)
(0.0140618 1.74242 -5.77363e-20)
(0.00233025 1.74923 -6.88759e-20)
(0.00745727 1.74725 0)
(0.0115553 1.74631 -1.70745e-21)
(0.0200915 1.74286 2.97583e-20)
(0.00838882 1.78389 2.3504e-21)
(0.00693763 1.78755 -3.38785e-20)
(0.00058894 1.78479 6.59436e-21)
(-0.000805249 1.76765 1.481e-20)
(0.00920264 1.76731 0)
(0.00174648 1.7854 0)
(0.00304907 1.77701 1.2265e-20)
(0.00362459 1.78351 -3.77504e-21)
(0.00670516 1.78375 0)
(0.00250437 1.77952 1.0105e-20)
(0.00930015 1.77266 -1.93117e-20)
(0.991619 0.0163212 0)
(1.00594 0.03086 -1.38347e-20)
(1.00692 0.0050246 -9.81166e-20)
(0.996456 0.00687065 0)
(1.01361 0.0286085 0)
(0.996178 0.00225442 -4.28777e-21)
(0.989533 0.00781394 1.61058e-19)
(0.999003 0.0115861 1.99233e-19)
(1.00567 0.0161401 0)
(1.0028 0.0116931 0)
(0.99985 0.0093409 1.0168e-19)
(1.00464 0.0104778 0)
(0.998615 0.0145688 0)
(0.0310006 1.75436 0)
(0.0199192 1.72782 2.24908e-23)
(0.0252971 1.76065 5.60155e-21)
(0.00124655 1.77916 0)
(0.0150427 1.72909 8.33025e-21)
(0.0016737 1.74198 -4.15412e-21)
(-0.0110357 1.78253 0)
(0.394355 1.66663 0)
(0.338842 1.74963 -1.09071e-19)
(0.330079 1.71277 0)
(0.458381 1.75932 9.03302e-20)
(0.481491 1.80976 0)
(0.45508 1.79622 -2.10156e-20)
(0.696073 1.53099 -8.19706e-21)
(0.724681 1.46553 -4.62345e-19)
(0.785215 1.43571 5.29711e-19)
(0.504487 1.50497 1.11774e-19)
(0.511851 1.52959 0)
(0.560121 1.51767 0)
(0.637014 1.48158 0)
(0.578494 1.47872 -4.0771e-19)
(0.371245 1.57555 -2.08886e-19)
(0.470095 1.53444 -5.31917e-20)
(0.496693 1.56414 4.32634e-20)
(0.401375 1.50063 0)
(0.455229 1.51281 0)
(0.417258 1.5057 -1.17919e-19)
(0.443396 1.55825 0)
(0.240467 1.36252 0)
(-0.110913 1.18806 -5.38596e-20)
(0.141253 0.806793 -7.22003e-21)
(0.0305702 1.6221 0)
(-0.0788225 1.66616 1.06287e-19)
(0.5757 0.840208 -3.29431e-20)
(0.593174 1.11325 0)
(0.631028 1.03277 4.90316e-20)
(0.347876 1.06973 0)
(0.372855 0.988465 0)
(0.80568 1.90316 -6.87462e-20)
(0.683089 2.15248 -1.04668e-19)
(0.59041 2.03475 2.07909e-19)
(0.660138 1.89252 -6.00988e-20)
(0.844288 1.7384 0)
(0.853181 1.6977 7.66387e-20)
(0.896546 1.57894 -8.47717e-20)
(0.921467 1.46455 -3.325e-21)
(0.54141 1.71926 0)
(0.406567 1.74835 -1.10798e-19)
(0.421939 1.67983 0)
(0.862009 0.212326 0)
(0.829052 0.160301 0)
(0.796062 0.176672 0)
(0.835631 0.221688 -1.44293e-19)
(0.799324 0.218896 8.7451e-20)
(0.901279 0.0623742 -9.16879e-20)
(0.927645 0.0842026 0)
(0.916912 0.0892119 4.01214e-20)
(0.874938 0.063575 1.62268e-19)
(0.877545 0.0649602 -1.01657e-19)
(0.781784 3.28454 -3.2986e-19)
(0.747548 3.21734 0)
(0.811956 3.28904 -8.19856e-19)
(0.384401 3.55751 7.32939e-19)
(0.449032 3.29785 3.22037e-19)
(0.11778 0.880678 -2.36159e-19)
(-0.187487 1.38276 0)
(0.474436 0.365396 -1.04356e-21)
(0.466602 0.377183 -4.1774e-20)
(0.74294 0.398622 -3.79197e-20)
(0.681528 0.477867 1.30332e-20)
(0.633298 0.475353 7.41472e-20)
(0.640852 0.475571 0)
(0.650136 0.468096 0)
(0.644519 0.423306 0)
(0.958576 0.558716 4.38974e-21)
(0.830291 0.450809 -1.0143e-19)
(0.822736 0.520386 7.90393e-20)
(0.861757 0.470649 -7.96302e-20)
(1.01975 0.449928 0)
(1.05146 0.508054 -1.66813e-20)
(0.750405 0.362682 -1.77579e-19)
(0.763541 0.355191 -2.13828e-19)
(0.736286 0.371182 1.37139e-19)
(0.757089 0.342137 -1.44318e-19)
(0.781222 0.293955 -1.12898e-19)
(0.762686 0.30491 1.38966e-19)
(1.01275 -0.00398646 -1.0491e-19)
(1.01589 -0.000704635 2.14158e-19)
(0.99485 0.0207507 1.33134e-19)
(1.0001 0.0334288 -1.5938e-19)
(0.983657 0.0223304 0)
(0.984668 0.00418886 -2.56349e-19)
(0.0542644 1.77447 1.19012e-20)
(0.0413307 1.75329 0)
(0.0755535 1.76822 1.087e-19)
(0.0751418 1.76803 -9.89433e-20)
(0.0782521 1.76871 2.99848e-20)
(0.0529144 1.74303 0)
(0.0171727 1.73572 0)
(0.0102948 1.77286 -3.75322e-21)
(0.00344982 1.77552 3.38425e-21)
(0.0135803 1.76077 -6.14202e-22)
(0.0208084 1.743 -6.53611e-21)
(0.00841736 1.73741 5.66956e-21)
(0.498303 1.66179 -2.64813e-19)
(0.477746 1.6486 2.81015e-19)
(0.45835 1.7134 -7.10995e-20)
(0.466107 1.68023 1.13347e-20)
(0.577283 1.65981 0)
(0.549097 1.77169 3.83418e-20)
(0.561684 1.73438 -3.7402e-20)
(0.486858 1.73599 6.88819e-20)
(0.515396 1.68494 0)
(0.494102 1.68935 0)
(0.370857 1.55258 3.19851e-19)
(0.393079 1.51886 4.83121e-19)
(0.412158 1.55692 -3.30073e-19)
(0.341765 1.53519 -6.08997e-20)
(0.297986 1.54028 1.02811e-19)
(0.243057 1.53172 -2.55449e-19)
(0.826592 1.41959 -2.91754e-19)
(0.89834 1.42305 0)
(0.867773 1.40897 -2.82087e-19)
(0.805735 1.59585 0)
(0.808311 1.55949 0)
(0.208188 2.91546 2.63431e-19)
(0.494486 3.1684 2.66171e-19)
(0.456171 3.23313 -3.17269e-19)
(0.534602 1.36293 0)
(0.452999 1.05236 1.04328e-19)
(0.120504 1.2171 1.55108e-19)
(0.214561 2.82275 0)
(0.387314 3.12873 -2.2949e-19)
(0.418226 2.98362 0)
(0.504491 0.506682 -9.24222e-20)
(0.653072 0.646346 1.62134e-19)
(0.700044 0.6201 -1.6571e-19)
(0.599994 0.467369 -1.27026e-20)
(0.661858 0.496477 -6.08242e-20)
(0.42645 2.98733 -2.03113e-19)
(0.421155 2.78155 1.03436e-19)
(0.2116 2.74527 -2.17054e-19)
(0.0688199 2.60047 1.14623e-19)
(0.175854 2.31149 -1.97242e-19)
(0.33365 2.68242 -7.5251e-20)
(0.375537 2.35031 2.78912e-20)
(0.0281362 2.52174 -1.22238e-21)
(0.0614616 2.40544 1.06432e-19)
)
;

boundaryField
{
    wall-4
    {
        type            noSlip;
    }
    velocity-inlet-5
    {
        type            fixedValue;
        value           uniform (1 0 0);
    }
    velocity-inlet-6
    {
        type            fixedValue;
        value           uniform (0 3 0);
    }
    pressure-outlet-7
    {
        type            zeroGradient;
    }
    wall-8
    {
        type            noSlip;
    }
    frontAndBackPlanes
    {
        type            empty;
    }
}


// ************************************************************************* //
