/*--------------------------------*- C++ -*----------------------------------*\
| =========                 |                                                 |
| \\      /  F ield         | OpenFOAM: The Open Source CFD Toolbox           |
|  \\    /   O peration     | Version:  4.0                                   |
|   \\  /    A nd           | Web:      www.OpenFOAM.org                      |
|    \\/     M anipulation  |                                                 |
\*---------------------------------------------------------------------------*/
FoamFile
{
    version     2.0;
    format      ascii;
    class       volScalarField;
    location    "53";
    object      p;
}
// * * * * * * * * * * * * * * * * * * * * * * * * * * * * * * * * * * * * * //

dimensions      [0 2 -2 0 0 0 0];

internalField   nonuniform List<scalar> 
918
(
0.559011
1.19251
0.00139289
0.558415
-0.0116492
1.15952
-0.50323
0.689995
0.539191
-0.102162
-0.035948
0.537273
1.02026
0.787669
-1.12234
-0.0045105
0.65534
-0.381789
0.538267
-0.0473005
0.716455
0.545748
0.548775
0.539357
0.605615
0.762522
0.901543
0.0213102
0.00814519
0.00433073
-0.0113242
-0.037995
-0.0318475
1.04316
1.09426
1.11695
0.507142
0.334853
-0.369403
-0.438748
-0.431809
-0.542886
0.685199
0.683629
-0.197835
0.692759
0.696611
0.526275
0.538558
0.539463
0.540508
0.539479
0.540866
0.409402
-0.105462
-0.13789
-0.0822124
-0.073409
0.0624428
-0.0366401
-0.0395074
-0.0342894
-0.0341619
0.456755
0.53203
0.529011
0.542549
0.552372
1.13206
1.10397
1.13012
1.04384
1.0603
0.998226
0.97088
0.807215
0.829016
0.77426
0.76039
-1.55648
-2.51172
-0.530338
-0.278538
-0.0103518
-0.00205285
0.00431998
0.65111
0.651394
0.655658
0.660547
1.08357
-0.380298
-0.477049
0.538405
0.537208
0.545555
0.546253
0.542269
0.541361
-0.037248
-0.0338503
-0.043539
-0.0452099
-0.0445728
0.705545
0.704905
0.53989
0.536898
0.559237
0.580287
0.572576
0.282507
0.610917
0.624994
0.593128
0.754733
0.748716
0.757422
0.87513
0.839512
0.938434
0.961527
0.0168858
0.000736804
-0.010357
-0.0175735
-0.0150481
0.503005
0.495606
0.522605
0.510547
0.513032
0.250949
0.116731
0.420364
0.445653
-0.286573
-0.349576
-0.426975
-0.456375
-0.566654
0.613055
0.677459
0.674416
-0.211488
-0.138535
-0.270037
-0.0649227
-0.126538
0.516587
0.523563
0.518581
0.534085
0.528563
0.530521
0.542814
0.539889
0.541447
0.471822
0.595549
0.33565
0.300865
-0.243062
-0.155475
-0.243971
-0.0610674
-0.0568116
0.0761253
0.101403
0.0495916
0.0379077
-0.050221
-0.0430072
-0.0462355
-0.032201
-0.0313071
0.449595
0.438518
0.469367
0.476862
0.521064
0.52238
0.526181
0.524437
0.921591
0.943976
0.951589
0.925311
-3.50557
-6.29519
0.0476148
0.184614
-0.00539623
-0.00814816
0.00256792
-0.00460306
0.00127676
-0.00151289
0.00209002
0.000383614
0.00438569
0.00671274
0.644139
0.644718
1.00404
1.00845
0.981969
0.933922
0.526568
0.528656
0.534177
0.530048
-0.0314046
-0.0320227
-0.0309869
0.698642
0.7031
0.701631
0.244554
0.155875
0.332978
0.361713
0.637441
0.626278
0.636119
0.653933
0.691502
0.968945
0.987207
0.985386
0.993768
1.03775
1.05411
1.01956
0.482629
0.492514
0.487514
0.525749
0.523497
0.524413
0.520125
0.521496
0.519398
-0.0343862
-0.415953
0.494562
0.512583
0.495356
0.499654
0.692654
0.770247
0.66164
0.668947
0.66674
0.00350005
-0.0547093
0.256862
0.223496
0.389692
0.425809
0.40492
0.892896
0.853181
0.903319
0.876528
0.837694
0.863593
-0.367661
-1.87226
-0.988679
0.535786
0.349338
0.437029
0.0198046
0.00270297
0.00738905
1.00188
1.07655
0.651375
0.82421
0.828482
0.725268
0.754686
0.813804
0.742051
0.77526
0.807053
0.785053
0.56974
0.507967
0.522691
0.839294
0.894954
0.126867
0.0672264
0.023117
0.119848
0.176584
0.150879
1.03772
0.949364
1.02007
0.536655
0.537368
-0.00126212
-0.0141792
0.541575
0.541625
-0.00930023
0.00241022
0.419721
-0.831089
0.109103
0.530121
0.520139
0.537206
-0.0852781
0.361752
-0.0371792
0.0569977
0.00167604
0.53432
0.467721
0.427309
0.00601378
-0.0135615
-0.0400202
-0.213211
0.534326
0.532632
0.536673
0.537628
0.538301
-0.0127163
-0.00895158
-0.0064586
-0.0378686
-0.0337248
-0.0437146
0.501322
0.519917
-0.16597
0.536812
0.538942
0.538762
0.531996
0.537636
0.535881
-0.00396923
-0.0108164
-0.0124812
0.226253
0.355163
0.660676
0.749009
0.632302
0.407006
0.170812
0.56302
0.62657
0.53193
0.685977
0.673886
0.68875
0.174343
0.0242149
0.183435
0.124694
0.527979
0.526672
0.518395
0.515394
0.532066
0.53017
0.534737
0.531739
0.534691
0.536082
-0.0431574
-0.0670076
-0.0806424
-0.148297
0.316549
0.578368
0.258814
0.289299
0.149617
-0.0317627
-0.0319676
-0.0361779
-0.0434359
0.0109807
-0.0130762
0.0521035
0.0528536
0.0254872
-0.00141424
0.00311367
-0.00783436
-0.00462426
0.527323
0.525739
0.532073
0.541359
0.477284
0.481052
0.446257
0.466773
0.452145
0.391441
0.426546
0.401736
-0.000209682
0.0100634
0.00208976
-0.00996637
-0.0062785
-0.0242356
-0.0219582
-0.0176683
-0.0137921
-0.0211191
-0.0348426
-0.0333754
-0.171333
-0.286805
0.990715
0.915656
0.134281
0.523492
0.529932
0.526704
0.531583
0.534711
0.535526
0.53325
0.529804
0.520306
0.521879
0.518626
0.519427
-0.0983286
-0.239311
-0.0670508
-0.139131
0.145683
0.628966
0.3671
0.304008
0.298905
0.525981
0.925838
0.712335
0.68802
0.701348
-0.339845
0.0523357
-0.274752
0.342586
0.167443
0.660045
0.707917
0.728969
0.677863
0.631214
-0.103067
0.557224
-0.0642454
-0.0139765
0.185846
0.0659795
0.685391
0.658494
0.661617
0.678765
0.695373
0.664666
0.648512
0.643256
0.675164
0.678278
0.494143
0.257416
0.209065
0.170557
0.645542
0.530102
0.583871
0.499725
0.523113
0.525759
0.52438
0.506122
0.513659
0.509222
0.515609
0.519044
0.527776
0.528214
0.523532
0.525676
-0.0476946
-0.0510454
-0.0249616
-0.134578
-0.126003
-0.187922
-0.0603886
0.0779556
0.0395393
0.237841
0.343611
0.0549461
-0.0565258
-0.0291896
0.0111101
0.181762
0.207769
0.0808799
0.169362
0.158087
0.141353
0.242851
0.24737
-0.0168675
-0.0211801
-0.0241609
-0.025881
0.028236
0.0980677
0.107992
0.00595095
-6.7246e-05
-0.0293972
-0.0292313
-0.0147255
-0.0189286
-0.0153185
0.018674
-0.0426864
-0.010799
0.00444984
0.00911065
0.00610789
0.000740536
0.51956
0.521924
0.521518
0.52841
0.546942
0.562786
0.519468
0.49933
0.490187
0.493183
0.46629
0.476543
0.472228
0.485939
0.507031
0.51646
0.513755
0.516526
0.499179
0.500847
0.487348
0.491063
0.466061
0.447209
0.43536
-0.0329296
0.00512625
-0.00250489
-0.0299608
-0.000898905
-0.0133114
-0.000766004
0.0189774
0.00262554
-0.0002454
-0.0108932
-0.0164353
-0.0156689
-0.0725968
0.0129463
-0.181025
-0.218649
-0.289322
0.89237
1.01629
0.813588
0.586817
0.60497
0.848132
0.933273
0.548506
0.73872
0.762604
0.588135
0.853884
0.528314
0.527919
0.525521
0.524998
0.526217
-0.00505637
0.0994894
0.100355
0.161548
0.277705
0.390155
0.318743
0.193531
0.324428
0.3274
0.621304
0.633787
0.589351
0.613454
0.613548
0.429442
0.505389
0.557605
0.514931
0.567133
0.588041
0.543709
0.575978
0.526192
0.480747
0.476755
0.427627
0.447252
0.423763
0.406619
0.518273
0.495514
0.506101
0.496318
0.515729
0.540622
0.536757
0.567802
0.579197
0.499793
0.45586
0.465094
0.495499
0.456413
0.471398
0.487597
0.232829
0.13413
0.216549
-0.0714058
0.00299391
-0.0108331
-0.0587206
-0.00937022
0.27562
-0.418079
-0.394035
-1.02334
0.502282
0.958997
0.631622
0.604564
0.692317
0.674309
0.679042
0.695759
0.699859
0.635185
0.650176
0.652714
0.615649
0.638513
0.658038
0.655225
0.527277
0.391016
0.387908
0.33863
0.20882
0.24724
0.447255
0.369805
0.294568
0.295521
0.462747
0.349978
0.418865
0.454501
0.385749
0.339815
0.54322
0.608309
0.600397
0.574802
0.490402
0.503889
0.527918
0.562807
0.588657
0.619508
0.515126
0.521007
0.522248
0.519739
0.516996
0.520012
0.52022
0.522759
0.523455
0.526429
0.52546
-0.0380229
-0.02584
-0.038798
-0.046901
-0.01477
-0.0183399
0.0248899
0.0111281
-0.00457957
0.00141779
-0.0247894
-0.0291435
-0.0241669
-0.0151157
0.103718
0.11617
0.0996738
0.0602388
0.251398
0.381778
0.455356
0.331009
0.223758
0.247237
0.268013
-0.0054385
0.0221681
0.00909294
0.0478993
0.039331
-0.0236209
-0.0278568
-0.0252644
-0.0185425
-0.00914074
-0.0247981
-0.0267
-0.0190946
-0.0230372
-0.0246686
-0.0270822
0.501571
0.495083
0.496786
0.490642
0.489362
0.503626
0.507846
0.509819
0.515264
0.517542
0.507673
0.513415
0.517195
8.40038e-05
-0.0232988
-0.0269073
-0.015578
-0.018646
-0.0172979
-0.0196
0.123496
0.0518596
0.056447
0.0100972
-0.120517
-0.0628601
0.491917
0.491656
0.482995
0.721364
0.570811
0.491467
0.588878
0.694196
0.275391
0.473394
0.307521
0.889312
0.784829
0.931254
0.543047
0.2449
0.405237
0.451906
0.263006
0.336518
0.329306
0.217263
0.248639
0.284456
0.384805
0.266115
0.242248
-0.000162421
0.189574
0.302571
0.284292
0.410099
0.47179
0.265728
0.186579
0.140809
0.607193
0.626305
0.641463
0.6137
0.634738
0.578871
0.568189
0.586277
0.595729
0.590647
-0.751018
-0.457566
-1.40359
-0.722909
-0.269674
0.532814
0.500959
0.768306
0.650373
0.697302
0.68253
0.641366
0.609478
0.629647
0.655726
0.351559
0.462953
0.438082
0.443151
0.344687
0.275974
0.575036
0.570093
0.604019
0.627681
0.59819
0.628735
0.512936
0.512627
0.512148
0.508428
0.506692
0.509011
0.0637572
0.0326935
0.0683477
0.04898
0.0260413
0.0144868
0.00377612
-0.00561191
-0.0128982
-0.0135183
-0.000361551
0.00329845
0.170504
0.109436
0.0292788
0.059234
-0.00095637
-0.0700968
-0.0876889
0.0146725
0.110094
0.100631
0.405382
0.656013
0.47594
0.643299
0.484901
0.540733
0.471933
0.463614
0.489735
0.381076
0.461115
0.241521
-0.265317
-0.174144
0.790001
0.803462
0.583465
0.404201
0.172892
0.355102
0.547773
0.480325
0.517131
0.586063
0.574887
0.0228533
0.084043
0.360952
0.58826
0.239268
0.230233
0.224285
0.404759
0.325163
)
;

boundaryField
{
    wall-4
    {
        type            zeroGradient;
    }
    velocity-inlet-5
    {
        type            zeroGradient;
    }
    velocity-inlet-6
    {
        type            zeroGradient;
    }
    pressure-outlet-7
    {
        type            fixedValue;
        value           uniform 0;
    }
    wall-8
    {
        type            zeroGradient;
    }
    frontAndBackPlanes
    {
        type            empty;
    }
}


// ************************************************************************* //
