/*--------------------------------*- C++ -*----------------------------------*\
| =========                 |                                                 |
| \\      /  F ield         | OpenFOAM: The Open Source CFD Toolbox           |
|  \\    /   O peration     | Version:  4.0                                   |
|   \\  /    A nd           | Web:      www.OpenFOAM.org                      |
|    \\/     M anipulation  |                                                 |
\*---------------------------------------------------------------------------*/
FoamFile
{
    version     2.0;
    format      ascii;
    class       volScalarField;
    location    "42";
    object      p;
}
// * * * * * * * * * * * * * * * * * * * * * * * * * * * * * * * * * * * * * //

dimensions      [0 2 -2 0 0 0 0];

internalField   nonuniform List<scalar> 
918
(
0.5793
1.22871
0.00398276
0.578545
-0.0106851
1.19632
-0.476931
0.733907
0.559175
-0.0694536
-0.00191913
0.555109
1.05727
0.822819
-1.09526
0.0053473
0.683266
-0.359768
0.558558
-0.00752126
0.770196
0.565621
0.568644
0.559037
0.624789
0.802923
0.937964
0.0279363
-0.00014337
-0.0034263
-0.0117765
-0.042851
-0.0303076
1.07969
1.13029
1.15286
0.527688
0.36538
-0.326216
-0.405509
-0.39808
-0.521629
0.728332
0.727266
-0.161181
0.737179
0.744055
0.546727
0.558514
0.559458
0.560536
0.559492
0.560915
0.438137
-0.0745969
-0.107113
-0.0501485
-0.0399353
0.0853697
-0.0012178
-0.00392186
-0.00212077
-0.00591057
0.477631
0.550673
0.54792
0.560361
0.570265
1.16746
1.13851
1.16411
1.08108
1.09589
1.03499
1.00689
0.843797
0.865317
0.808514
0.793528
-1.51447
-2.47295
-0.5097
-0.257896
-0.011421
0.0106293
0.0217378
0.67486
0.673738
0.684198
0.696936
1.1168
-0.333067
-0.485933
0.558371
0.557351
0.565459
0.565817
0.562983
0.561064
-0.00687117
-0.0057754
-0.0110279
-0.00682609
-0.0137173
0.758515
0.756868
0.560715
0.557309
0.574953
0.594582
0.58857
0.307314
0.627257
0.638259
0.624346
0.790103
0.786776
0.794474
0.912637
0.875812
0.975067
0.998585
0.0154579
0.00397942
-0.00304286
-0.0110719
-0.00852955
0.523622
0.515565
0.542629
0.531091
0.533525
0.282118
0.148901
0.458702
0.486679
-0.240551
-0.311382
-0.397516
-0.427592
-0.529132
0.648022
0.717306
0.716107
-0.171068
-0.106559
-0.234214
-0.0244762
-0.0896177
0.537051
0.544041
0.538399
0.554076
0.548793
0.550389
0.562828
0.559895
0.561416
0.498743
0.601683
0.369402
0.329466
-0.216839
-0.120151
-0.214843
-0.0257445
-0.0203936
0.101831
0.128579
0.0739801
0.0675086
-0.0155439
-0.00610551
-0.00938728
-0.00475978
-0.00613805
0.47215
0.462044
0.491125
0.498322
0.541123
0.542103
0.54526
0.543799
0.957166
0.979858
0.988102
0.961523
-3.48795
-6.54304
0.0650949
0.206258
-0.000928446
-0.00815021
0.00444947
-0.00198172
-0.000975719
-0.000749077
0.0243811
0.028018
0.026042
0.0385765
0.662498
0.663461
1.02233
1.01662
0.985229
0.928413
0.546592
0.548706
0.554191
0.549697
-0.00659708
-0.00665185
-0.00770878
0.745214
0.752698
0.750575
0.27033
0.184305
0.357957
0.386607
0.654025
0.642953
0.651899
0.687505
0.722053
1.00515
1.02288
1.02319
1.03103
1.07611
1.08898
1.05474
0.503849
0.513363
0.508928
0.545779
0.543497
0.544387
0.540134
0.541432
0.538853
-0.0208365
-0.381141
0.5466
0.56212
0.543072
0.548866
0.719477
0.787174
0.697637
0.707406
0.706066
0.0434537
-0.0179079
0.284632
0.251687
0.412873
0.448759
0.42581
0.928433
0.889775
0.939759
0.91308
0.873117
0.899894
-0.420188
-1.65845
-0.919304
0.566488
0.375354
0.464596
0.0470299
0.0236545
0.0304723
1.00435
1.09487
0.649337
0.836989
0.885058
0.75816
0.789346
0.849888
0.772722
0.808603
0.84309
0.82215
0.605386
0.560131
0.563988
0.850015
0.903873
0.162915
0.111625
0.0548858
0.146006
0.201212
0.174925
1.04439
0.958353
1.03117
0.55692
0.557531
0.0103885
0.0131304
0.561735
0.561929
-0.00241074
0.00596305
0.450651
-0.789742
0.138441
0.549874
0.540154
0.557123
-0.0595131
0.401144
-0.00250016
0.0895008
0.0263594
0.552608
0.488401
0.45002
0.0150302
-0.00706835
-0.00351445
-0.196508
0.554434
0.552586
0.556638
0.557682
0.55832
-0.00100755
0.00600774
0.00350442
-0.00513218
-0.00356864
-0.00503346
0.52181
0.539253
-0.140458
0.556761
0.558971
0.55878
0.551656
0.5575
0.555436
0.00827543
-0.00186591
-0.00895613
0.258023
0.38278
0.692516
0.792384
0.663642
0.430313
0.176173
0.596497
0.659672
0.567072
0.718955
0.709657
0.730584
0.210987
0.050022
0.211908
0.15155
0.548069
0.54648
0.538565
0.535533
0.552089
0.550279
0.554667
0.551635
0.554529
0.555973
-0.0111949
-0.037847
-0.0518489
-0.125799
0.35698
0.623884
0.292129
0.332987
0.175407
0.00300015
0.00098731
-0.00314255
-0.00644029
0.0437269
0.00996243
0.0831334
0.0806232
0.0503366
0.02351
0.0323889
0.0151816
0.0179621
0.546001
0.544363
0.550655
0.559236
0.497798
0.501534
0.467198
0.487575
0.472683
0.415044
0.449485
0.424777
0.00802771
0.0209214
0.00287827
-0.00210146
0.00524981
0.00785282
0.00230439
0.000498792
0.00879053
-0.00080376
-0.00191296
-0.00876559
-0.153602
-0.264668
1.01937
0.951552
0.147194
0.543415
0.550003
0.546614
0.551628
0.554689
0.555543
0.553307
0.549878
0.53984
0.541599
0.538112
0.538797
-0.0713786
-0.216493
-0.0480454
-0.111371
0.15631
0.644174
0.394115
0.322613
0.323096
0.550164
0.969257
0.731482
0.718023
0.754855
-0.329609
0.0427207
-0.269127
0.322404
0.146948
0.694792
0.743979
0.764965
0.712118
0.66556
-0.222396
0.567853
-0.0318124
0.0146796
0.217679
0.105843
0.73458
0.693746
0.699066
0.718925
0.739057
0.697272
0.680733
0.677611
0.714478
0.719235
0.523673
0.29133
0.236389
0.203593
0.677578
0.561768
0.614183
0.526277
0.542969
0.545735
0.544275
0.526565
0.533972
0.529556
0.53565
0.538854
0.548062
0.548622
0.543665
0.545919
-0.0110353
-0.0167928
0.0126275
-0.108016
-0.0972543
-0.176841
-0.0241301
0.0986639
0.0669208
0.263683
0.344228
0.0729468
-0.0242349
0.00263523
0.0260138
0.198971
0.256589
0.113759
0.193587
0.191044
0.171143
0.286502
0.282653
0.0155433
0.0091293
0.00930323
0.00759757
0.0580202
0.127234
0.144612
0.0317745
0.0276076
-0.00256245
-0.00319753
0.0125157
0.0104398
0.0133493
0.0506239
-0.0603508
-0.00508853
0.0175875
0.0358541
0.0294605
0.0189046
0.538852
0.540883
0.540674
0.548598
0.565891
0.581768
0.539047
0.520129
0.510794
0.513583
0.487143
0.497701
0.493061
0.506142
0.52676
0.53589
0.533914
0.536574
0.519514
0.521166
0.508159
0.511543
0.488448
0.469544
0.457548
-0.0082069
0.0289567
0.0282802
-0.0138459
0.0153896
0.000474186
0.0233682
0.038725
0.024506
0.0145982
0.0121882
0.00504742
0.0116412
-0.0519669
0.0359005
-0.157903
-0.193943
-0.269174
0.921522
1.02749
0.844072
0.6116
0.624655
0.870722
0.953315
0.582048
0.754829
0.783714
0.621049
0.865225
0.548486
0.548047
0.545587
0.545124
0.546437
0.0190995
0.125971
0.124908
0.189811
0.301593
0.42374
0.330268
0.204449
0.335925
0.326232
0.637556
0.653654
0.608425
0.629892
0.631614
0.455368
0.531229
0.58521
0.54253
0.588191
0.607262
0.569376
0.596677
0.549115
0.502865
0.502817
0.451306
0.465145
0.444023
0.427221
0.538254
0.515231
0.525687
0.51615
0.53695
0.559615
0.554589
0.588509
0.599543
0.521011
0.478855
0.486144
0.518068
0.479138
0.493824
0.508611
0.249566
0.179379
0.217766
-0.0720535
0.0123945
-0.0638126
-0.0952173
0.0221217
0.321566
-0.419842
-0.479626
-1.03495
0.511688
1.03802
0.689147
0.6327
0.736349
0.713572
0.716091
0.745036
0.747003
0.668647
0.684791
0.692317
0.646252
0.668855
0.698407
0.693592
0.552726
0.40685
0.39924
0.360481
0.23583
0.27493
0.47759
0.392293
0.317977
0.332272
0.492005
0.385029
0.450492
0.47847
0.398556
0.371577
0.568298
0.638749
0.627035
0.599868
0.521723
0.534598
0.563167
0.597369
0.622483
0.659399
0.53524
0.541079
0.542378
0.539941
0.537001
0.539914
0.54008
0.542695
0.543467
0.546564
0.54552
-0.00191784
0.00838427
-0.00422749
-0.0120552
0.0145731
0.0125774
0.0627758
0.0471134
0.0271065
0.0339346
0.00859411
0.0089239
0.0112656
0.0185709
0.140029
0.140855
0.12134
0.0896274
0.268006
0.4056
0.469321
0.34853
0.257397
0.282937
0.295987
0.0195819
0.0475979
0.0369706
0.0739931
0.0710931
0.00508793
-0.00188772
0.00154021
0.00591951
0.0217994
-0.000308031
-0.00553309
0.00329062
0.000962287
-0.000847997
-0.00603847
0.522688
0.516215
0.516608
0.51115
0.510253
0.523291
0.527636
0.529986
0.535326
0.537168
0.527897
0.533124
0.536658
0.0201081
-0.00672312
-0.0175086
0.00634202
0.000122821
0.00483351
0.00439043
0.146755
0.0791817
0.0766989
0.0335054
-0.0980669
-0.0406381
0.515591
0.515286
0.5193
0.741892
0.59514
0.519575
0.62166
0.720826
0.294475
0.487289
0.322907
0.907282
0.796966
0.942905
0.551644
0.25698
0.418209
0.47556
0.265258
0.343063
0.343574
0.243748
0.272015
0.296339
0.40063
0.290594
0.273435
0.0235272
0.217955
0.335745
0.321903
0.448011
0.515243
0.272014
0.20021
0.168843
0.629298
0.647945
0.668856
0.638096
0.663078
0.598159
0.586068
0.604863
0.613696
0.609589
-0.760005
-0.47098
-1.38242
-0.674419
-0.233552
0.543384
0.508675
0.787226
0.670872
0.727
0.712696
0.681201
0.64552
0.65947
0.690134
0.388975
0.495302
0.472246
0.474788
0.366866
0.310555
0.608477
0.600448
0.639962
0.662995
0.629995
0.664401
0.532952
0.532676
0.532101
0.528671
0.527253
0.529323
0.0967749
0.0631783
0.108332
0.0880757
0.0635099
0.0467273
0.0301235
0.0206498
0.00704091
0.00522724
0.0240814
0.0285652
0.179132
0.11853
0.0501352
0.0766754
0.0162483
-0.0525956
-0.0716803
0.0325819
0.124695
0.126093
0.432225
0.671074
0.491068
0.661153
0.527719
0.558837
0.510245
0.506874
0.533335
0.417135
0.491292
0.307697
-0.229422
-0.108673
0.770019
0.831912
0.607187
0.480066
0.189639
0.31643
0.579515
0.504119
0.546625
0.618713
0.608706
0.0328114
0.0608619
0.396779
0.598746
0.262955
0.196163
0.212258
0.37568
0.328816
)
;

boundaryField
{
    wall-4
    {
        type            zeroGradient;
    }
    velocity-inlet-5
    {
        type            zeroGradient;
    }
    velocity-inlet-6
    {
        type            zeroGradient;
    }
    pressure-outlet-7
    {
        type            fixedValue;
        value           uniform 0;
    }
    wall-8
    {
        type            zeroGradient;
    }
    frontAndBackPlanes
    {
        type            empty;
    }
}


// ************************************************************************* //
