/*--------------------------------*- C++ -*----------------------------------*\
| =========                 |                                                 |
| \\      /  F ield         | OpenFOAM: The Open Source CFD Toolbox           |
|  \\    /   O peration     | Version:  4.0                                   |
|   \\  /    A nd           | Web:      www.OpenFOAM.org                      |
|    \\/     M anipulation  |                                                 |
\*---------------------------------------------------------------------------*/
FoamFile
{
    version     2.0;
    format      ascii;
    class       surfaceScalarField;
    location    "42";
    object      phi;
}
// * * * * * * * * * * * * * * * * * * * * * * * * * * * * * * * * * * * * * //

dimensions      [0 3 -1 0 0 0 0];

internalField   nonuniform List<scalar> 
1300
(
3.75095
5.62643
-3.08994
3.75095
-7.65066
5.62643
-4.41647
4.41647
-0.810766
0.810766
1.87646
1.87449
-2.98506
2.98506
-2.46551
2.46551
-2.54653
2.54653
-5.24637
5.24637
-5.06774
5.06774
4.65886
-4.65886
-6.19829
6.19829
-1.15187
1.15187
-3.87518
3.87518
3.16876
-3.16876
-2.31068
2.31068
-0.205512
0.205512
-0.553132
4.30409
3.19782
3.19782
-2.02163
2.02163
-4.86508
4.86508
6.21747
-6.21747
5.04373
-5.04373
-1.9538
-2.27759
1.82196
-11.5926
-5.8287
-5.8287
-8.44023
8.44023
-2.8138
2.81263
2.94474
-2.94474
-1.8655
1.8655
-4.32957
-0.0869053
-4.32957
4.42613
-0.00966011
4.42613
-0.897572
0.0868064
-0.897572
3.91256
-3.91256
0.691231
0.119535
0.691231
3.06515
-3.06515
-1.87717
3.75363
1.87379
-1.87178
6.17587
-1.87917
3.75366
-5.96311
5.96311
-3.18722
0.202164
-3.18722
2.80374
0.181317
2.80374
-6.79003
6.79003
-2.52098
0.0554784
-2.52098
2.38673
0.078773
2.38673
2.86958
-2.86958
-2.65097
0.104445
-2.65097
2.43164
0.114889
2.43164
0.353682
5.27275
-5.98011
8.79274
-5.27275
0.0263754
5.20821
0.03816
5.20821
-5.10552
0.0377762
-5.10552
5.01334
0.0544059
5.01334
4.73525
-0.0763998
4.73525
-4.7837
0.124841
-4.7837
-3.46912
-4.07211
-6.3563
0.158009
-6.3563
-1.16321
0.0113475
-1.16321
1.10817
0.0436997
1.10817
-3.63828
3.63828
-4.19911
0.323932
-4.19911
3.1226
0.0461564
3.1226
1.86902
1.88193
5.61998
-5.61998
2.45122
-2.29438
-0.0163049
-2.29438
-2.29168
-2.75206
2.29168
0.019009
-0.445985
0.240472
-0.445985
3.16011
0.0377071
3.16011
2.27635
0.155286
-2.27635
0.254726
3.24063
-3.24063
1.35163
0.669999
1.35163
-5.56883
5.56883
4.95397
0.0593675
-4.95397
0.0888937
6.15588
0.0615959
6.15588
-6.19985
-0.0176188
-6.19985
2.71618
-4.99377
-2.5121
6.0102
0.188092
-6.0102
0.181498
2.9153
0.0294381
2.9153
-2.91877
2.91877
-2.98409
0.0393531
-2.98409
-2.2483
0.382795
-2.2483
1.58
0.285505
1.58
-4.19843
-0.131136
-4.19843
-4.34466
0.145543
4.34466
0.0814733
1.17742
-1.17742
-1.00538
0.10781
-1.00538
-4.04703
-0.151397
4.04703
-0.134472
-3.7842
-0.128359
-3.7842
-3.02406
0.0399664
3.02406
0.0410935
3.11319
0.0469227
-3.11319
0.0480426
-1.87089
3.75282
-1.88006
3.75385
-5.58773
-0.375379
-5.58773
6.27387
-0.310763
6.27387
3.54612
0.329062
-3.54612
0.358902
2.67951
0.124224
2.67951
-6.75865
-0.031381
-6.75865
6.76972
0.0203134
6.76972
2.59606
0.0834543
-2.59606
0.0750759
2.33185
0.0548819
2.33185
2.88892
-0.0193364
2.88892
-2.86808
-0.00150333
-2.86808
2.7969
-2.7969
2.72796
0.0689347
-2.72796
0.07699
-11.1326
11.115
-0.0349482
-11.0977
5.17326
5.17326
4.15129
0.583966
4.15129
-4.99987
0.216177
-4.99987
2.8928
-5.4049
3.09537
-6.56448
4.68954
-16.2822
4.32351
-8.39561
6.62721
-6.62721
6.50348
0.123729
-6.50348
0.147184
-1.21958
0.056368
-1.21958
-3.03894
-0.599348
-3.03894
4.28543
-0.647149
4.28543
-3.0277
3.0277
-3.07667
0.0489688
3.07667
0.0459271
2.28729
0.0445618
-2.28729
-0.00709066
0.57063
0.120601
-0.57063
0.124645
3.42946
-0.188833
3.42946
-3.05193
-0.188696
-3.05193
-1.27995
0.0603676
1.27995
0.071678
-5.81612
0.247291
-5.81612
-11.191
0.0933182
-11.1528
-6.10654
-6.10654
2.33369
11.1264
-2.88927
0.0211935
2.88927
0.0260259
2.97426
0.0534391
-2.97426
0.0554975
-2.8599
0.063002
2.8599
0.0588683
-2.63132
0.383018
-2.63132
-1.16796
1.16796
-1.34326
0.175294
1.34326
0.236742
1.41296
-0.235541
1.41296
1.06766
0.0405094
-1.06766
0.0622753
-3.69024
-0.0939636
-3.69024
6.50936
-0.23549
6.50936
-2.94438
-0.107552
2.94438
-0.0554612
-0.0334797
11.1485
-5.13978
0.0342644
5.13978
-11.2101
11.2443
-3.25853
0.627216
3.25853
0.892756
5.29116
0.277673
-5.29116
0.291282
6.71715
0.0525728
-6.71715
0.0899358
-2.55757
-0.481365
-2.55757
-5.02213
-0.565606
5.02213
-0.736695
-11.4729
-0.203318
11.6763
-11.4185
6.01944
0.13644
-6.01944
11.3808
-1.10133
-0.07609
1.10133
0.06663
1.71482
-0.301854
1.71482
3.60244
-0.172979
-3.60244
-0.0877987
-6.66632
-0.0923354
6.66632
-0.156953
-2.11486
-0.442706
2.11486
-0.400047
-4.2669
4.30461
1.90897
-2.55761
-2.43616
-5.30967
1.85155
1.90128
4.30277
-10.1988
-6.08337
-10.0173
7.25731
-6.96603
-9.26756
9.19116
7.68773
-7.81609
-5.78702
5.83295
6.48281
-6.44172
1.87875
1.87488
7.88361
-7.68145
-15.6294
15.254
7.43162
-7.37614
15.8088
-15.8402
-17.9118
17.9644
-5.7111
5.81555
-6.72923
6.72772
-6.94847
6.893
-2.947
-3.61748
13.1843
-13.0262
8.36474
-8.38105
-8.56142
8.88535
3.38198
0.922632
3.4289
-1.88231
3.76106
-1.87135
3.78032
2.67658
-5.62358
2.72832
-5.16448
4.15145
4.21329
-4.17046
-1.13921
-5.91999
5.94943
-5.82111
5.87998
8.99978
-9.08669
-1.88521
3.76009
-1.86864
3.76992
-3.42648
-2.36054
3.38033
0.92244
8.10919
5.07506
-8.29729
-1.72
-7.9763
7.80332
-8.18356
7.99486
-0.433842
5.8173
-5.38346
4.43124
-1.55816
7.37546
5.69915
5.91533
5.86346
-5.58579
1.10257
-6.48603
-6.39713
-2.47139
2.5792
2.41108
-2.29155
5.99157
1.69616
5.8571
-5.68016
-2.13593
-5.77412
3.82175
2.01119
3.87072
4.07695
2.40586
4.11691
3.03061
-3.03559
0.00498197
-3.05631
6.08692
0.724494
-5.41685
-4.49441
4.92488
2.95873
5.1062
-5.48269
-2.19876
-5.12379
-9.52983
-6.09959
-10.0954
10.1025
5.15155
9.79173
-11.9851
11.8282
4.72299
2.70863
4.80177
-4.88162
-2.49452
-4.80655
11.6253
-2.60586
-9.01947
-10.3533
-7.5585
10.333
5.47587
10.9978
6.96654
11.0878
4.4404
7.18493
-9.91627
2.35777
-3.86579
-1.84531
-3.7888
3.68407
2.13148
3.79896
-4.21384
-2.51539
-4.19264
-4.288
-2.66047
4.30733
2.42039
-4.40348
-3.78008
4.51103
2.38198
4.05943
-10.1428
4.33618
-7.95367
-9.24936
-3.77689
-9.10218
3.49098
2.59522
-6.0862
-2.1326
8.43629
-4.223
7.29708
-5.09999
-3.28106
-5.10708
-6.80912
-1.75231
-6.66357
-8.8439
8.36254
-9.16873
8.52158
12.5867
-5.6757
-6.91098
-3.9685
-2.47321
3.92046
-0.491562
-3.7107
3.71569
0.0503552
3.83067
4.75331
4.26174
-3.88764
-1.93346
-3.83215
3.8313
2.04867
3.89431
6.77953
2.22025
6.76987
-6.49298
-2.59371
-6.62411
9.04068
-8.65789
2.9083
-2.84793
5.35489
2.63997
-5.16606
-2.81024
6.1949
-3.18726
-3.00764
-12.2151
10.5767
1.63843
-4.83968
-0.408443
-0.202931
-5.48774
-3.77982
5.3629
0.552429
11.1291
7.34932
-5.5129
5.76019
6.16336
6.22273
-0.174407
5.77548
-5.14826
5.33298
-2.47038
-2.8626
5.34302
-5.49442
-1.28109
-5.3552
4.07411
0.362681
1.65334
-1.41287
-1.92018
-0.551205
-1.85791
1.44796
0.963124
1.56856
0.938451
1.64074
-2.94966
0.563996
2.38566
-2.01121
-1.72755
-3.71045
-1.13669
4.84714
5.71365
2.08967
-5.62585
-0.148271
2.61375
-2.57005
-0.724739
-2.98572
2.19567
-2.92041
-3.70285
-1.91651
5.61936
-3.37114
-0.461005
3.3177
0.553019
-3.82567
-2.09432
3.78632
0.330595
-3.12568
6.18833
-3.06265
-5.05914
2.52869
3.55823
4.53989
-4.78904
2.44635
2.34269
-1.23081
4.21654
0.889658
4.34076
-6.77959
4.58084
5.74674
3.13862
-6.0758
0.952008
-5.82759
8.46308
-7.27976
-1.18332
4.10302
4.36006
7.12427
5.4624
-5.72661
12.8509
-1.17899
-6.10077
7.00657
-3.86795
4.76456
-8.63251
-10.227
4.12618
-9.17223
10.9474
-1.77521
-3.63579
-8.34931
12.808
-1.20692
-11.6011
8.5848
-4.14257
-4.24945
8.39201
-6.74843
6.74396
-1.94623
-4.79773
-10.1267
-5.71354
10.219
1.60914
-9.84328
12.2011
-2.65835
4.06658
0.735188
4.12146
3.22595
-5.40238
2.17643
3.52248
-5.46871
2.05901
-7.46139
-6.77021
12.1462
-5.37596
-10.5471
-9.56365
-0.983446
2.53559
9.66547
-9.50213
7.45435
2.04778
3.30774
0.586564
-3.37668
-0.412127
0.241981
4.53436
-4.77634
4.04094
4.19622
3.33595
1.19841
3.84174
2.10769
-3.86776
-0.32488
-4.15352
1.49306
-1.73313
-3.68115
5.1742
-4.06903
0.387886
-2.73943
-3.50665
6.24608
-4.58474
3.03677
3.15155
5.08545
-4.91301
1.40637
-2.39969
-2.51333
2.66267
-4.3958
1.97735
3.19685
4.35933
0.579247
5.93049
6.21568
-8.52571
0.572044
11.2907
-9.57075
2.47689
8.61086
-9.93124
0.367586
-8.73459
0.998264
-5.22126
-5.08794
5.09028
-6.84258
-3.54223
6.15452
0.615349
-6.236
-0.427577
-6.02434
-2.81956
-6.46705
-3.04445
-6.12428
-8.77106
-1.63891
-7.13215
6.72362
-6.67039
-3.42504
7.40709
1.11449
-7.39576
7.31967
-7.47621
7.17435
0.0951296
3.62056
4.35687
1.88366
-2.38975
4.27341
-5.0805
7.30075
-8.56751
3.48701
4.03293
-6.62664
-4.53457
5.0329
4.00778
5.3184
8.91496
-10.4106
1.49565
-10.7304
12.0371
-1.30666
-16.4914
5.761
-7.57643
2.57665
0.331644
2.63302
0.596863
2.49339
-3.09025
-2.25107
-2.17939
-2.3803
-3.44474
5.82503
1.12892
-3.47107
2.34215
-3.54555
4.67447
-0.126501
-3.34457
5.30438
-2.81099
5.63602
-3.67205
1.96397
3.38391
5.72487
-2.34096
4.37766
-1.73769
1.87732
-4.21828
-1.56742
-2.96391
5.09539
-3.28217
3.67006
-0.319043
3.9891
-4.08267
0.895413
-0.746718
3.44951
3.70423
4.28887
-3.09046
2.93705
-4.67473
-1.28123
-4.09549
-0.898638
-0.285205
-3.76024
4.04545
6.0353
-6.3205
-5.22584
9.54265
-4.31682
7.72523
-5.38815
-2.33708
-4.2463
-4.41159
3.86328
1.9122
9.63743
0.235935
-5.62408
-4.91233
-4.01957
3.18911
2.14387
-1.87653
3.51496
2.07946
-0.426119
0.525147
1.04341
1.85256
-1.32741
0.244811
1.60774
-1.16806
1.89727
0.716484
-1.93778
0.0798706
-1.31629
3.51196
1.06937
-2.03249
0.705085
1.03443
-3.50481
4.95776
-2.58019
-2.37757
5.99219
1.13516
-3.71535
4.22004
-3.85736
2.33548
-3.47217
-1.37987
-5.23723
-3.54107
-2.56111
4.90327
-3.26392
5.35359
1.20041
-5.20532
6.40573
-3.61515
1.69864
-3.09761
3.8141
-1.05932
-2.03829
2.86463
2.75473
-2.97442
-0.0112965
-0.109791
2.36248
-2.47227
-0.557925
-2.56913
-4.57297
4.90357
-2.1063
4.55265
2.16711
-1.91544
6.4681
1.81041
-3.72585
-3.24874
-3.70974
-1.38316
3.15672
-0.589624
-4.21693
-5.38736
4.13347
0.207293
-6.8979
7.70011
-0.80221
-3.93916
-0.641673
4.74469
-5.94776
0.479046
-3.88875
3.81136
4.70102
4.90831
-11.3866
-0.214492
-6.23505
1.14855
-7.38361
5.50861
-3.59734
7.72353
-10.368
6.94299
-9.25354
6.54021
-0.843399
6.248
-4.07157
2.77147
-8.48501
-6.87587
5.395
-2.68637
6.13019
-3.04729
9.17748
-5.70564
5.14697
4.0305
-0.969502
-4.13758
-5.17542
4.20592
-0.0284481
4.09301
4.97431
-2.86662
4.64943
2.26176
-4.66145
-2.13404
-6.49964
1.83819
-3.34808
-1.91732
3.7555
3.16813
3.75469
1.24218
-3.34257
7.18388
-8.16732
-1.80791
-3.28003
5.15357
-0.947656
3.34875
-6.62877
-1.87251
4.86471
-0.850552
-4.01416
0.810985
-4.35322
1.66758
-6.0208
5.175
-5.60258
2.19193
-9.76836
-5.20384
-5.13721
-2.23388
-5.24233
-7.60281
5.36893
-1.8418
5.47787
-8.55917
7.70862
-3.47789
8.84682
-5.43214
-1.03491
5.83219
1.34216
10.189
0.182536
-4.71711
-1.91166
3.95678
-2.04512
1.27745
-3.57771
0.37907
2.48752
3.50467
-6.56163
-0.0650114
-4.78212
-3.92946
7.93725
5.61319
11.6485
1.23788
9.11716
-1.17991
10.355
4.13849
4.37524
-3.02351
4.51915
1.02194
4.50895
-0.872055
2.83602
1.76097
1.77231
0.797736
2.31977
1.38447
3.21518
0.124924
-2.05447
4.62924
-8.64881
-0.994844
-8.06485
1.12631
5.82202
-4.6957
3.08303
-0.939166
1.03791
0.0680585
-1.56889
1.50083
-2.79455
-1.99501
-0.387265
-1.64888
2.35396
1.86308
-1.9667
-0.827848
0.378381
-3.91945
3.09379
-3.10508
-0.350351
6.05538
-2.77827
0.305995
-1.07962
-2.26314
-2.81434
2.73447
6.17565
0.292452
3.113
5.19602
3.1017
0.235084
3.88142
-5.65664
-3.57997
-5.87113
-0.362514
4.38218
1.72064
7.94482
5.75115
4.80349
-1.82528
-9.9926
6.52266
-2.00351
5.21599
-1.20183
-4.81896
4.99695
2.3038
-5.6123
0.00972072
-4.80924
-6.81275
-0.55806
8.26668
-9.63092
8.59601
5.77645
1.35569
-4.41021
-0.726995
4.23492
0.140318
10.4954
-1.17829
-6.73024
7.90853
-4.64373
3.64888
0.770236
2.74472
2.27107
1.3319
-5.39834
-10.094
-1.97036
-1.53445
-4.34793
0.499215
-2.3623
6.27184
-2.62296
3.93476
5.28557
6.32349
-2.14387
-4.17663
6.46069
-2.52593
3.79756
)
;

boundaryField
{
    wall-4
    {
        type            calculated;
        value           uniform 0;
    }
    velocity-inlet-5
    {
        type            calculated;
        value           uniform -3.75095;
    }
    velocity-inlet-6
    {
        type            calculated;
        value           uniform -5.62643;
    }
    pressure-outlet-7
    {
        type            calculated;
        value           nonuniform List<scalar> 8(3.08994 7.65066 4.23138 9.77065 7.54122 5.22828 5.98816 9.01304);
    }
    wall-8
    {
        type            calculated;
        value           uniform 0;
    }
    frontAndBackPlanes
    {
        type            empty;
        value           nonuniform 0();
    }
}


// ************************************************************************* //
