/*--------------------------------*- C++ -*----------------------------------*\
| =========                 |                                                 |
| \\      /  F ield         | OpenFOAM: The Open Source CFD Toolbox           |
|  \\    /   O peration     | Version:  4.0                                   |
|   \\  /    A nd           | Web:      www.OpenFOAM.org                      |
|    \\/     M anipulation  |                                                 |
\*---------------------------------------------------------------------------*/
FoamFile
{
    version     2.0;
    format      ascii;
    class       volVectorField;
    location    "42";
    object      U;
}
// * * * * * * * * * * * * * * * * * * * * * * * * * * * * * * * * * * * * * //

dimensions      [0 1 -1 0 0 0 0];

internalField   nonuniform List<vector> 
918
(
(0.98509 -0.000551128 0)
(0.00478738 2.96626 0)
(0.00767316 0.816392 0)
(0.979828 0.00240842 0)
(-0.0115028 2.03188 1.59362e-20)
(-0.00704907 2.94891 -1.11149e-18)
(0.821182 1.1725 1.72794e-19)
(0.261713 0.131325 -6.53759e-21)
(0.999905 -0.000301197 0)
(0.0506968 0.840799 0)
(0.0161424 0.659655 0)
(0.73154 -0.0139157 0)
(0.0115125 2.93011 0)
(0.00331027 2.79476 0)
(-0.0209303 3.15263 3.33561e-19)
(-0.0213465 1.87162 -2.99719e-21)
(0.329202 0.0370121 4.27349e-19)
(0.199966 1.1966 1.20482e-19)
(0.961976 0.00388252 0)
(0.00122063 0.60636 0)
(0.0559259 0.164718 -3.11149e-19)
(1.00217 -0.00520062 0)
(1.00076 -0.0101517 0)
(0.975977 -0.00653112 0)
(0.580853 -0.0267869 0)
(0.0182213 2.63812 0)
(-0.0148124 2.91009 3.91864e-19)
(0.00888727 0.895733 0)
(0.00944828 1.132 0)
(0.00350692 0.87361 0)
(-0.00994886 2.61381 0)
(0.00344936 2.09308 -1.24067e-20)
(-0.00963928 1.84926 0)
(-0.0204471 2.98752 -4.00615e-23)
(-0.0169824 3.0054 8.82917e-19)
(0.00201675 3.00015 0)
(0.870715 -0.00880582 0)
(0.438 0.97355 8.29793e-20)
(0.79262 1.19138 -1.80189e-19)
(0.937997 1.02686 2.03852e-19)
(0.66431 1.28852 -3.95312e-20)
(0.669263 1.2733 2.31387e-19)
(0.302896 0.206617 6.37437e-21)
(0.274307 0.103937 0)
(1.12567 0.568304 0)
(0.272693 0.196304 2.91358e-20)
(0.231304 0.132036 -3.02521e-20)
(0.919574 -0.00725917 0)
(1.00028 0.000156406 0)
(0.999916 0.000342766 0)
(1.00351 -0.00767397 0)
(1.00096 -0.000945459 0)
(1.00019 2.33966e-05 0)
(0.0630778 1.8016 -3.39778e-19)
(0.0226101 1.02139 0)
(0.0804358 0.901826 0)
(0.0105307 0.971749 0)
(0.0299231 0.780438 0)
(0.0188349 1.99168 0)
(0.0117126 0.865362 0)
(0.0122115 0.68064 0)
(0.0197957 0.846121 0)
(0.0131162 0.634178 0)
(0.838496 -0.014484 0)
(0.847418 0.0284016 0)
(0.766149 -0.00347449 0)
(0.818975 0.0374251 0)
(0.700325 -0.0134934 0)
(0.0153306 3.00066 4.04144e-19)
(0.0117047 3.00838 0)
(0.00650561 3.00256 0)
(0.0141567 2.99722 4.54376e-24)
(0.00835506 2.95851 -6.10818e-19)
(0.0152008 2.98184 0)
(0.0112261 2.90366 0)
(0.0256238 2.93005 9.00302e-25)
(0.00499602 2.8249 0)
(0.0317907 2.91591 0)
(-0.00509953 2.74596 0)
(0.303585 3.54523 0)
(-0.146144 3.62221 0)
(0.134499 3.24497 -3.07892e-19)
(-0.0105401 2.98423 0)
(-0.0140052 2.01742 0)
(-0.00569224 2.15122 2.95554e-21)
(-0.0127696 1.884 -8.73233e-21)
(0.432283 0.136948 -1.47853e-19)
(0.325808 0.0275655 -1.42677e-19)
(0.415596 0.154171 -4.45255e-19)
(0.312938 0.054375 -2.94187e-19)
(0.190519 0.952599 0)
(0.224849 1.33312 -1.40862e-19)
(0.372611 1.28555 2.39227e-19)
(0.987352 0.0082351 0)
(0.941281 0.00545014 0)
(1.00031 0.000430319 0)
(1.00326 0.00949518 0)
(1.00287 0.00785184 -1.14887e-18)
(0.991774 0.00988925 8.77252e-19)
(-0.00653888 0.809888 0)
(0.00703528 0.603904 0)
(-0.0123067 0.939467 0)
(0.00396816 0.813111 0)
(-0.00850953 0.59078 0)
(0.0966262 0.170626 9.64192e-20)
(0.152158 0.149264 0)
(0.993362 -0.00825047 0)
(0.954483 -0.00615376 0)
(0.765386 0.0446357 0)
(0.702101 0.0561888 0)
(0.662481 -0.0232472 0)
(0.962701 -0.00509869 0)
(0.61468 0.0802832 0)
(0.441419 0.00240817 6.32627e-19)
(-0.0363072 2.86534 2.91753e-19)
(0.042101 2.90959 0)
(0.0547383 2.88464 0)
(-0.00367478 2.69873 0)
(-0.0138548 2.98487 3.70763e-19)
(-0.0182029 2.8949 0)
(-0.015994 2.988 -1.15208e-18)
(-0.0131538 2.92534 3.95653e-19)
(0.0320548 1.34836 0)
(0.0486489 1.39352 0)
(-0.00439723 2.11359 7.13723e-23)
(-0.00294324 2.06649 0)
(-0.0246234 1.85868 0)
(0.938074 -0.00763384 0)
(0.857023 -0.00815339 0)
(0.862664 0.00577103 0)
(0.949181 -0.00790759 0)
(0.88366 -0.00733185 0)
(0.546931 1.1679 -1.05641e-19)
(0.596561 1.20681 0)
(0.405476 0.926397 1.52355e-20)
(0.344884 0.780212 0)
(0.901423 1.06451 -5.46399e-20)
(1.00783 0.869532 1.10147e-19)
(0.361565 1.37282 0)
(0.521766 1.35199 0)
(0.527143 1.30303 0)
(0.122457 0.209211 -1.27907e-19)
(0.338533 0.201015 0)
(0.302407 0.0920297 8.32021e-20)
(0.984325 0.924217 0)
(1.05543 0.778707 0)
(1.07615 0.719349 -8.40672e-20)
(1.10642 0.623661 0)
(1.15454 0.408492 2.35808e-20)
(0.95764 -0.00854467 0)
(0.962355 -0.0102675 0)
(0.901967 -0.00736417 0)
(0.984346 -0.00918509 0)
(0.974832 -0.00934213 0)
(0.937442 -0.00598235 0)
(1.00017 0.00214941 0)
(1.00086 0.00142688 0)
(0.999869 0.000910041 0)
(0.0281392 2.06345 1.8637e-19)
(0.0981462 1.75264 0)
(0.0135724 2.17308 2.93412e-19)
(0.0443324 1.85687 -2.47612e-19)
(0.0996876 1.2134 -9.82761e-20)
(0.0428839 1.09515 0)
(0.118323 1.0455 0)
(0.0041856 0.928034 0)
(0.0126443 0.733544 0)
(-0.00581203 2.22911 -5.34069e-22)
(0.0239492 1.99667 0)
(-0.00506537 2.23221 -2.4672e-20)
(0.0181974 1.99458 4.45493e-20)
(0.00530706 0.9051 0)
(0.0128938 0.881788 0)
(0.00735602 0.704833 0)
(0.00216615 0.826608 0)
(0.00727531 0.618497 0)
(0.935501 0.00956089 0)
(0.8446 -0.0154803 0)
(0.925689 -0.000848886 0)
(0.839547 -0.0119686 0)
(0.811029 0.00060603 0)
(0.901033 0.0198333 0)
(0.877609 0.0239098 0)
(0.787901 -0.000915057 0)
(0.00407707 3.06441 -3.57462e-21)
(0.01673 3.05752 0)
(0.0152643 2.96897 0)
(0.00893501 2.8763 0)
(0.962169 3.98194 0)
(1.30682 3.24546 4.48974e-19)
(0.0689802 3.07667 0)
(-0.0236827 2.90803 0)
(0.0286796 1.42785 0)
(-0.017639 1.73278 0)
(0.0191562 1.59111 0)
(-0.0287032 2.56735 -7.65578e-22)
(-0.0125085 2.25813 0)
(-0.0201924 2.4033 0)
(0.0177441 1.92275 -7.69328e-22)
(-0.00839364 2.21961 9.19232e-21)
(-0.0107382 2.18594 8.82159e-21)
(0.00790694 1.89477 0)
(0.463087 0.119643 2.22685e-19)
(0.354312 0.0124324 -2.18705e-19)
(0.271901 1.57335 0)
(0.248378 0.739121 -1.28292e-19)
(0.177565 1.66514 -4.24159e-19)
(0.2042 1.20699 4.25126e-19)
(0.901661 0.00586792 0)
(0.96733 0.0107468 0)
(0.9744 0.0106853 0)
(0.923172 0.00593196 0)
(0.00116903 0.807906 0)
(-0.0125737 0.807201 0)
(-0.00149106 0.605554 0)
(0.235921 0.189623 2.68829e-19)
(0.198923 0.174303 -3.18503e-19)
(0.197843 0.140822 0)
(1.08584 0.0835932 1.22795e-20)
(1.06537 0.0376563 0)
(1.00286 0.0389402 0)
(0.899039 -0.00589261 0)
(0.495045 0.100052 0)
(0.538224 0.0861489 -1.0124e-18)
(0.391138 0.00944508 3.79124e-19)
(0.00922674 2.98142 3.10715e-19)
(-0.0329545 2.86696 1.90799e-20)
(0.00189533 3.04967 -7.55771e-21)
(0.0208399 3.04315 2.78746e-19)
(-0.0153071 2.9963 1.29828e-20)
(-0.0127863 2.94947 -5.23254e-23)
(-0.0175764 3.01148 -2.38415e-19)
(0.0142588 3.0229 1.71657e-19)
(0.00676172 3.03682 -2.78624e-19)
(0.932647 -0.00229984 0)
(0.93881 -0.00322536 0)
(0.843767 -0.00762103 0)
(0.9564 0.0115717 0)
(0.942716 0.0129166 0)
(0.881169 0.00544122 0)
(0.917658 0.0161085 0)
(0.9262 0.0147692 0)
(0.838176 0.00297449 0)
(0.760695 1.43337 2.16201e-20)
(0.803305 1.52493 0)
(0.216577 0.352828 3.15593e-20)
(0.250193 0.718993 2.51718e-19)
(0.2922 0.771793 -1.50981e-19)
(0.303413 0.557441 2.93425e-19)
(0.338928 0.817301 6.66075e-19)
(0.138305 0.239219 1.5187e-19)
(0.387555 0.176822 3.11633e-19)
(0.36657 0.192524 8.11884e-20)
(0.313353 0.0693736 1.55351e-19)
(1.14696 0.464877 8.64267e-21)
(1.1617 0.264339 6.53748e-21)
(0.0074823 2.22449 1.14398e-19)
(0.0423196 1.92622 0)
(0.964645 0.0302483 0)
(0.938499 0.0123804 0)
(0.865151 -0.0179127 0)
(0.0114091 3.07441 0)
(0.020714 2.944 5.07867e-19)
(0.0171474 2.95632 0)
(0.00661955 2.85049 -5.06201e-19)
(0.0057378 3.0916 1.20186e-19)
(0.00567978 3.08162 0)
(0.888348 1.82856 -6.7878e-20)
(1.27173 2.37903 1.15492e-19)
(0.868648 1.93245 -4.74341e-19)
(0.0203175 2.98241 -2.70241e-19)
(0.0358756 3.00248 0)
(-0.0323484 2.88108 0)
(-0.00568962 2.20792 -6.37366e-21)
(-0.00694859 2.23071 -1.79436e-20)
(0.0149756 1.95644 -4.06314e-21)
(0.278735 1.38962 4.18907e-19)
(0.202417 0.535503 -2.8516e-19)
(0.0534821 1.99124 3.19988e-19)
(0.153225 1.88389 -3.84126e-19)
(0.149641 1.48259 4.06823e-20)
(0.00425702 3.11868 -7.1118e-19)
(0.0102526 3.11912 8.05245e-19)
(-0.00968337 2.98054 3.41717e-19)
(-0.00482344 2.97772 -3.23693e-19)
(-0.0216849 2.88124 -3.48219e-19)
(0.00752166 3.09929 -8.95424e-19)
(0.000842969 3.10465 9.09933e-19)
(0.293338 0.729544 0)
(0.26028 0.728561 -5.20936e-19)
(0.111349 0.248775 2.32062e-19)
(0.354994 0.938886 4.52883e-19)
(0.185249 0.278961 -6.98685e-19)
(1.16394 0.173486 3.27013e-20)
(1.16365 0.313186 0)
(1.14962 0.124711 -9.93568e-21)
(-0.002098 2.24196 -8.08178e-22)
(0.000935872 2.23491 0)
(0.026908 1.96436 0)
(0.351919 1.29384 -1.49939e-19)
(0.378396 1.13396 -3.26149e-19)
(0.189059 0.371206 5.79801e-19)
(1.00554 -0.0111784 0)
(1.00751 -0.00743751 2.13377e-19)
(0.0306392 1.322 0)
(0.00557886 1.28436 0)
(1.00198 0.00344765 7.98037e-22)
(1.0038 0.0100397 4.31677e-19)
(-0.0183408 2.55057 1.00747e-21)
(-0.0265043 2.59239 0)
(0.033235 3.17426 1.91948e-19)
(0.387855 3.47936 0)
(1.17036 0.637818 -3.06232e-20)
(1.01323 0.0135848 -7.66937e-22)
(1.02124 -0.0106975 0)
(1.00176 0.000111561 2.6616e-23)
(0.103099 1.35194 0)
(0.15378 2.57073 0)
(0.0184566 1.29018 0)
(0.00372814 2.62765 2.63667e-20)
(-0.0208546 2.58817 1.25475e-20)
(1.00188 0.02908 9.81303e-22)
(1.0619 0.00322305 0)
(1.09313 0.0219143 0)
(-0.0161597 1.76158 0)
(-0.0265708 2.59355 0)
(0.000726978 1.28096 0)
(0.308409 1.46539 -6.12927e-20)
(1.01124 -0.00988864 0)
(1.00939 -0.0153638 0)
(1.0024 0.000636715 2.71011e-19)
(1.00538 -0.00478208 -3.21725e-19)
(1.0012 -0.00105187 0)
(0.00064805 1.4814 0)
(0.0227857 1.37926 0)
(0.0262515 1.44765 0)
(0.00203198 1.26904 0)
(0.0110297 1.24318 0)
(0.00562853 1.21716 0)
(1.03427 -0.00702434 0)
(1.02086 0.0161631 -3.62294e-22)
(0.806509 1.25429 8.97194e-20)
(1.00221 0.000392166 -2.70261e-19)
(1.00402 0.00534228 3.21456e-19)
(1.00118 0.0021283 0)
(1.01342 0.0105614 2.68197e-19)
(1.00856 0.00868631 -3.24819e-19)
(1.00928 0.0156828 0)
(-0.0293382 2.621 0)
(-0.028693 2.60056 -1.91985e-21)
(-0.0283902 2.6143 1.92113e-21)
(1.22928 0.248253 2.61635e-19)
(1.15608 0.0789839 0)
(0.0431274 3.07412 -4.14043e-19)
(0.0648236 2.85281 -2.95402e-20)
(0.140968 3.19682 6.28827e-19)
(0.138881 3.227 -8.35353e-20)
(0.132349 3.23539 0)
(0.0196237 3.13634 1.10143e-19)
(0.0746379 3.16136 4.039e-19)
(0.0681159 3.18539 -2.09468e-19)
(0.0235587 3.12844 0)
(0.647021 0.286358 0)
(0.566101 0.336077 0)
(1.11361 0.667716 7.44562e-20)
(1.1387 0.799386 -7.48126e-20)
(1.18462 0.552237 0)
(1.23111 0.496258 0)
(1.01634 0.0136598 -5.06472e-19)
(1.01512 0.0148206 6.34818e-19)
(1.02514 -0.0101526 0)
(1.02315 -0.0123729 0)
(1.00638 0.00258766 0)
(1.01013 0.00361308 0)
(1.00462 0.00186224 0)
(1.00983 0.00606222 0)
(1.00805 0.00631828 0)
(1.00442 0.00442866 0)
(0.0909342 1.3476 0)
(0.0883343 1.31829 0)
(0.122776 1.38495 0)
(0.143534 1.39869 0)
(0.147688 2.59419 0)
(0.188044 2.6581 -1.91774e-19)
(0.100213 2.65149 0)
(0.0916009 2.65307 9.37887e-20)
(0.0437739 2.68373 -7.77822e-20)
(0.0299726 1.29919 0)
(0.0220956 1.23341 0)
(0.0246969 1.31568 0)
(0.0270056 1.25597 0)
(0.00397397 1.97951 -1.21968e-20)
(-0.0198981 2.61666 5.06566e-21)
(-0.00787333 2.67031 2.14247e-20)
(-0.0168254 2.69149 0)
(-0.0246111 2.62259 -2.80638e-20)
(-0.0239362 2.61737 -1.21702e-20)
(0.0153825 1.97961 1.07569e-20)
(-0.00728892 2.40383 -6.55694e-21)
(-0.0126099 2.42447 -2.54654e-20)
(1.01167 0.0366522 5.09386e-19)
(1.00707 0.0170898 -6.33426e-19)
(1.00294 0.0433128 -5.13222e-19)
(0.981967 0.0239435 6.51756e-19)
(1.06306 0.00745935 0)
(1.04842 -0.00896186 0)
(1.09209 0.0309966 0)
(1.07259 0.0115603 0)
(1.07065 0.000561431 0)
(1.13274 0.0810772 0)
(1.1076 0.0419284 0)
(1.11312 0.0276925 0)
(-0.0179586 2.44816 -7.87536e-22)
(-0.0201938 2.00991 0)
(-0.0128405 2.22712 0)
(-0.0259668 2.61519 -9.26089e-22)
(-0.0223031 2.62311 -1.56547e-22)
(0.00173621 1.56522 2.37968e-21)
(0.00479332 1.50612 -2.39262e-21)
(-0.0035899 1.38246 0)
(0.000799335 1.39289 0)
(0.00325037 1.38905 0)
(0.00124556 1.2822 0)
(0.0110128 1.22226 0)
(0.377322 1.48531 9.85234e-20)
(0.429848 1.48556 5.38958e-20)
(0.593433 2.43767 -1.02401e-19)
(0.40364 2.53522 2.98825e-19)
(0.345301 2.06613 3.28672e-20)
(1.02112 -0.00814824 0)
(1.01546 -0.0098856 0)
(1.01496 -0.0160837 0)
(1.00735 -0.00124589 0)
(1.00494 -0.00105642 0)
(1.00771 -0.00464472 0)
(1.00918 -0.0037568 0)
(1.01408 -0.00448697 0)
(1.02152 0.0162825 4.97557e-19)
(1.0182 0.0162217 -6.31971e-19)
(1.02183 0.0182023 -4.98101e-19)
(1.01969 0.0169677 6.25183e-19)
(0.771307 1.30593 0)
(0.711262 1.35694 8.73338e-20)
(0.874226 1.21556 2.90624e-20)
(0.934073 1.15297 -3.86472e-20)
(1.15782 2.60297 1.31767e-19)
(0.808769 0.11285 2.47365e-19)
(1.15167 0.109253 0)
(1.20606 0.191611 -2.09694e-19)
(1.19707 0.143292 -8.878e-21)
(1.00218 0.146438 0)
(0.156423 2.96202 2.17923e-19)
(0.112601 2.86891 -5.53966e-19)
(0.0281155 2.38115 3.4436e-19)
(0.0958867 -0.0186426 -1.46281e-19)
(0.336346 3.422 -8.39659e-20)
(0.197188 3.32091 0)
(0.228172 3.35408 1.09273e-19)
(0.25551 3.04177 -7.15634e-19)
(0.359448 3.20222 0)
(0.00734507 3.12034 2.10316e-20)
(0.0174772 3.12897 -2.5028e-19)
(0.0160226 3.12478 3.67061e-19)
(0.0350894 3.13957 0)
(0.0332911 3.15007 0)
(1.19107 2.64253 0)
(0.54885 0.836961 -2.18046e-19)
(1.06105 0.973553 8.54497e-21)
(0.964966 1.07138 0)
(0.820452 0.95438 -5.0816e-20)
(1.05132 0.879844 1.05802e-20)
(0.348002 0.388206 -3.90378e-19)
(0.68508 0.317147 -8.07237e-21)
(0.647076 0.228078 1.76824e-19)
(0.580225 0.383073 1.30593e-20)
(0.49611 0.334656 -5.2714e-19)
(0.658192 0.336921 0)
(0.711018 0.415603 2.98549e-19)
(0.716842 0.413605 0)
(0.61573 0.371132 0)
(0.585159 0.278956 0)
(0.804721 0.607513 1.78541e-19)
(1.21912 0.278477 -2.25333e-19)
(1.22596 0.405703 0)
(1.24694 0.344996 0)
(0.734854 0.188278 2.62841e-19)
(0.854382 0.538017 -1.63847e-19)
(0.751009 0.508703 2.90855e-19)
(0.955285 0.422302 -3.18213e-19)
(1.02 0.0148305 3.3879e-19)
(1.01812 0.0144135 -3.41016e-19)
(1.01591 0.0162315 0)
(1.03587 -0.00630049 0)
(1.02958 -0.00876305 -3.19566e-19)
(1.02748 -0.0126493 3.17033e-19)
(1.02498 0.00990515 0)
(1.02382 0.0132807 0)
(1.0112 0.00399657 0)
(1.01431 0.00891473 0)
(1.01474 0.00410952 0)
(1.01386 0.0029644 0)
(0.0585163 1.32999 0)
(0.0605161 1.28671 0)
(0.142761 1.35439 -1.3212e-20)
(0.277698 1.46362 3.14261e-20)
(0.167332 1.43358 6.69355e-20)
(0.208731 1.44445 -1.09064e-19)
(0.165477 1.37778 0)
(0.1304 1.59309 -3.81536e-20)
(0.110595 1.56077 0)
(0.347543 2.0128 -4.75006e-20)
(0.348604 2.35927 2.59589e-19)
(0.190533 1.44679 3.33627e-20)
(0.252022 1.37128 2.59286e-21)
(0.198227 1.36076 -2.08468e-21)
(0.260445 1.31825 -5.67098e-20)
(0.230014 1.57671 0)
(0.259258 1.60648 5.81584e-20)
(0.0325757 2.26487 -1.85075e-20)
(0.0449564 2.67175 0)
(0.0638577 2.40305 7.32905e-20)
(0.0594027 2.42632 0)
(0.0720182 2.6646 -1.04361e-19)
(0.0543597 2.69997 0)
(0.0310626 1.3994 -4.69399e-21)
(0.0365463 1.45193 0)
(0.0314848 1.37107 0)
(0.0268124 1.37229 5.2842e-21)
(0.00156996 2.65601 -9.16752e-21)
(0.031109 2.69958 8.89323e-20)
(0.013528 2.72468 6.67636e-22)
(0.00573136 1.82692 1.02114e-20)
(-0.00244837 1.67335 4.59484e-21)
(0.0216043 1.28631 0)
(0.0271398 1.21721 0)
(0.0518242 1.56692 8.31374e-21)
(0.0281257 1.43744 7.13755e-21)
(0.0397497 1.50373 -8.70292e-21)
(0.0406868 1.59217 0)
(-0.0272468 2.28543 3.32637e-20)
(-0.0359111 2.56467 -1.55175e-20)
(-0.0114142 2.45815 -6.43004e-22)
(-0.00253847 1.84408 -1.23325e-20)
(-0.0265397 2.5065 -4.17301e-21)
(-0.0207575 2.45022 1.8348e-20)
(1.01975 0.0210517 -3.36445e-19)
(1.01595 0.0266762 3.38406e-19)
(1.01497 0.016603 0)
(1.01193 0.0698659 4.71102e-19)
(0.990522 0.0596707 -5.29123e-19)
(0.949451 0.0411745 5.93484e-19)
(1.01451 0.103869 -6.28918e-20)
(1.042 -0.00614123 0)
(1.05024 -0.00193268 3.06449e-19)
(1.03851 -0.0105327 -3.05775e-19)
(1.06962 0.0413681 -1.81033e-20)
(1.06342 0.021566 1.5596e-19)
(1.06345 0.0519653 0)
(1.05253 0.0473467 -5.59631e-20)
(1.03283 0.0403256 0)
(1.02642 0.0368221 0)
(1.02755 0.0135587 0)
(1.02412 0.016094 0)
(1.03958 0.0316173 1.15004e-19)
(1.03898 0.0257573 -2.53694e-19)
(1.04966 0.0313056 -1.22495e-19)
(1.04898 0.0313147 -1.34666e-19)
(1.06836 0.0615262 2.63252e-19)
(1.09182 0.0502728 0)
(1.10276 0.0925619 0)
(-0.0235621 2.28487 5.83913e-21)
(-0.0154251 2.02484 -1.47626e-21)
(-0.02111 2.0233 0)
(-0.0260032 2.45493 -6.07398e-21)
(-0.0193506 2.4126 2.16366e-21)
(-0.0319882 2.48618 1.08189e-22)
(-0.0216836 2.63009 1.04196e-20)
(-0.0266616 2.57223 -9.00848e-22)
(-0.020307 2.52318 3.43225e-21)
(-0.0180243 2.62605 -3.1536e-21)
(-0.0234862 2.62651 4.45172e-21)
(-0.00682525 1.48038 -5.75624e-22)
(0.0117212 1.61235 2.64008e-21)
(0.358901 1.42623 -3.92756e-20)
(0.357622 1.36942 2.64811e-20)
(0.652517 1.40961 -8.4413e-20)
(0.521528 1.47606 -5.22175e-20)
(0.584782 1.4439 0)
(0.58224 2.41556 9.66364e-20)
(0.654474 2.41334 1.46887e-19)
(0.403925 2.51215 3.70537e-20)
(0.406127 2.54624 -2.64389e-19)
(0.519704 2.49492 2.57742e-19)
(0.54309 2.45369 0)
(0.479671 2.50907 -2.41444e-19)
(0.237411 2.58472 5.05442e-19)
(0.347248 2.56481 -3.42939e-20)
(0.281151 2.64797 -6.87788e-19)
(0.932548 2.37694 3.26782e-19)
(0.826788 2.38402 0)
(1.01091 0.000253073 1.09218e-20)
(1.01523 -0.00548127 -9.04873e-21)
(1.01756 -0.00348151 -1.63031e-19)
(1.01484 -0.000917136 1.64811e-19)
(1.01219 0.000994146 0)
(0.636255 1.27578 0)
(0.647609 1.17154 0)
(0.749749 1.0769 0)
(0.647278 1.12945 0)
(1.18604 2.61323 2.67779e-20)
(1.07288 2.362 0)
(0.852319 2.17964 1.67838e-21)
(0.82156 2.44592 0)
(0.921996 2.53795 -1.78475e-19)
(0.95944 2.4976 1.15944e-19)
(0.816836 0.170315 0)
(0.781994 0.139867 6.70457e-20)
(0.923617 0.142357 3.94503e-19)
(0.838098 0.143261 -1.46357e-19)
(0.811487 0.0861644 -4.53801e-19)
(1.07181 0.228992 -3.94546e-19)
(0.99579 0.294204 -6.40072e-21)
(0.924531 0.281466 3.64576e-19)
(1.00214 0.21939 3.06058e-19)
(0.953671 0.184365 -5.24257e-19)
(0.921406 0.186992 6.5331e-20)
(0.952505 0.243977 -1.40039e-19)
(0.934473 0.212337 0)
(0.991915 0.179958 2.58596e-19)
(1.04401 0.183118 0)
(1.04057 0.212101 0)
(1.09956 0.11724 1.23692e-19)
(1.07311 0.173066 -5.97251e-21)
(1.06939 0.229541 -6.65074e-20)
(1.10234 0.200204 0)
(1.02214 0.0449514 2.60987e-19)
(1.04268 0.0571274 3.2295e-19)
(1.03471 0.043822 -2.56259e-19)
(1.0435 0.0640187 -2.16963e-19)
(1.01815 0.0718567 -3.32328e-19)
(0.988532 0.151489 0)
(1.00168 0.102115 0)
(0.9689 0.0669803 -2.1087e-19)
(0.916259 0.0874334 8.23002e-20)
(1.03852 0.0996108 3.0057e-19)
(1.0683 0.116607 -3.55009e-19)
(1.07476 0.148531 3.13916e-19)
(1.02848 0.142664 0)
(1.07209 0.106661 0)
(1.05575 0.0854702 -1.44697e-19)
(1.04539 0.0934245 -2.45726e-19)
(0.577632 1.07973 6.2158e-20)
(0.622796 1.39143 -2.62551e-20)
(1.16086 2.73874 -1.00441e-19)
(1.23743 3.07494 -4.43328e-22)
(1.25005 2.71081 -6.69611e-20)
(1.28029 2.70892 -2.98691e-20)
(1.16704 2.35209 8.20267e-21)
(1.22605 2.96882 -5.87813e-20)
(1.24769 2.93768 1.26809e-19)
(1.24292 3.2302 -7.83324e-20)
(1.36524 2.96636 9.04186e-20)
(1.30349 2.89081 0)
(0.554737 0.841805 -2.07604e-20)
(0.113187 1.24378 2.53308e-19)
(0.555612 0.440511 2.55477e-19)
(0.365033 0.181358 2.76335e-19)
(0.520236 0.381176 2.98813e-19)
(0.555352 0.464114 -4.92079e-19)
(0.547021 0.480135 4.03116e-19)
(0.491002 0.392049 -1.52292e-19)
(0.405853 0.318992 3.4261e-19)
(0.737271 0.249888 -1.50219e-19)
(0.701867 0.276544 0)
(0.67879 0.200234 3.45772e-21)
(0.736642 0.510534 1.56781e-19)
(0.712337 0.473669 -5.736e-19)
(0.611241 0.472664 5.1553e-21)
(0.625394 0.456604 0)
(0.672821 0.730984 1.69995e-19)
(0.843952 0.779834 1.66825e-19)
(0.757375 0.861925 -1.94364e-19)
(0.879523 0.806924 -6.75112e-20)
(0.902892 0.838979 -1.7647e-20)
(0.908994 0.841057 1.81303e-20)
(0.855967 0.636603 -2.97478e-19)
(0.927327 0.707563 6.29147e-20)
(0.979947 0.713084 0)
(0.963217 0.680072 -8.91056e-20)
(1.02318 0.316531 9.19344e-20)
(1.12283 0.28826 1.31558e-19)
(1.05913 0.263297 1.58149e-19)
(1.01681 0.358187 -1.85776e-19)
(1.06052 0.418125 0)
(1.1001 0.403383 0)
(0.918258 0.349838 3.04243e-21)
(0.842362 0.287261 0)
(0.880225 0.285079 1.70564e-19)
(0.913437 0.287936 -3.23297e-21)
(0.945568 0.422901 8.87509e-19)
(0.9048 0.484266 2.32011e-19)
(0.906746 0.447725 -2.46114e-19)
(0.821416 0.430857 2.6401e-19)
(0.806758 0.430385 1.58879e-19)
(0.772897 0.412574 -1.54675e-19)
(1.0272 -0.000359478 2.69757e-19)
(1.01984 -8.68641e-05 0)
(1.01844 0.000794383 1.78306e-19)
(1.02144 -0.00208621 -4.02038e-19)
(1.02218 0.00436495 1.95705e-19)
(1.02045 0.0112259 -4.11777e-19)
(1.02146 0.0105303 0)
(1.02103 0.0105352 -8.50697e-20)
(1.0159 0.00778665 2.13086e-19)
(1.01683 0.0103114 -1.07802e-19)
(1.01752 0.00959595 7.93685e-20)
(0.0268741 1.30709 0)
(0.0330974 1.34596 0)
(0.0401921 1.30887 0)
(0.0376808 1.26694 0)
(0.0645972 1.37279 1.08762e-20)
(0.0735186 1.34244 3.99029e-22)
(0.117169 1.49828 -1.46604e-20)
(0.0904119 1.354 7.47653e-21)
(0.0328882 1.44259 -1.78802e-20)
(0.0364022 1.43523 1.37585e-20)
(0.0584357 1.35511 -1.25612e-21)
(0.052711 1.35613 -4.64052e-21)
(0.0443898 1.33224 -7.94467e-22)
(0.0380278 1.35565 -1.71835e-21)
(0.107839 2.37188 -7.90679e-20)
(0.0923813 2.42127 0)
(0.168284 2.06412 4.98696e-20)
(0.113016 1.70756 2.13116e-20)
(0.234701 2.05313 -4.00598e-20)
(0.205675 2.4387 0)
(0.269277 2.39273 -2.56189e-19)
(0.305357 2.39115 1.81168e-19)
(0.22215 2.00649 -1.16522e-19)
(0.150862 2.16751 7.76842e-20)
(0.15286 2.28303 0)
(0.0168546 1.87631 -1.89561e-20)
(-0.000215982 2.40114 -4.00721e-20)
(0.0057442 2.15344 0)
(0.012692 2.4616 -5.70711e-21)
(0.0277909 2.30646 1.424e-20)
(0.0254745 1.38353 1.22605e-22)
(0.0226783 1.37182 5.41184e-22)
(0.0218047 1.37546 -1.75243e-21)
(0.0258976 1.37408 1.54203e-21)
(0.0307275 1.40407 0)
(0.0184693 1.35551 0)
(0.00571736 1.27974 -1.94388e-21)
(0.0155441 1.34702 1.7657e-22)
(0.0162381 1.34801 0)
(0.0190066 1.27512 -1.14633e-21)
(0.0220683 1.20883 3.08854e-21)
(1.0397 0.0105658 0)
(1.04563 0.00708547 -2.85379e-20)
(1.03851 0.0205083 -2.04619e-19)
(1.04787 0.0193905 0)
(1.05139 0.0192123 0)
(1.03652 0.0109867 -2.7957e-21)
(1.03123 0.0105836 3.29593e-19)
(1.03167 0.0161576 4.03152e-19)
(1.02565 0.0202238 0)
(1.0232 0.0205562 0)
(1.03497 0.0248176 2.04938e-19)
(1.02639 0.0258472 0)
(1.02456 0.0257369 0)
(-0.0244083 2.02392 0)
(0.0176646 1.65178 -3.98532e-21)
(0.00234768 1.76297 -1.51253e-20)
(0.00889997 1.3591 0)
(-0.0139561 1.54765 6.71591e-22)
(0.0104957 1.44909 -8.58407e-22)
(0.00717327 1.36748 0)
(0.378743 1.67405 0)
(0.362835 1.29156 -4.9971e-20)
(0.307119 1.33978 0)
(0.416686 1.28826 2.71548e-20)
(0.466365 1.45506 0)
(0.445843 1.40027 -3.15832e-22)
(1.03065 2.68393 -6.96381e-21)
(0.958096 2.41172 -3.99366e-19)
(0.906854 2.19355 4.57425e-19)
(0.839843 2.37645 1.13049e-19)
(0.840155 2.49847 0)
(0.912536 2.49196 0)
(0.915241 2.37169 0)
(0.89434 2.35788 -4.13461e-19)
(0.684165 2.46148 -1.74514e-19)
(0.795569 2.45751 -4.21473e-20)
(0.807829 2.42723 3.33779e-20)
(0.685956 2.38985 0)
(0.791973 2.38909 0)
(0.747204 2.39883 -1.5803e-19)
(0.764563 2.49351 0)
(0.618205 1.10593 0)
(0.485876 0.921523 -2.10203e-19)
(0.56837 0.948599 -1.35952e-20)
(0.525952 1.05284 0)
(0.529047 1.00388 3.18216e-19)
(0.780019 0.88837 -5.63792e-20)
(0.783316 1.01149 0)
(0.756908 0.959568 8.43832e-20)
(0.641816 1.04264 0)
(0.650602 0.946555 0)
(1.16647 2.75451 -1.06309e-19)
(1.14347 2.81987 -4.91813e-20)
(0.938998 2.33335 5.82352e-20)
(0.899711 2.31262 -3.97803e-20)
(1.1292 2.7257 0)
(1.08145 2.69424 5.01372e-20)
(1.08823 2.4787 -1.40082e-19)
(0.979758 2.2335 -1.38618e-20)
(0.49414 1.35274 0)
(0.504113 1.07157 -5.44754e-20)
(0.562041 1.14787 0)
(0.863192 0.226328 0)
(0.786669 0.182734 0)
(0.726139 0.141405 0)
(0.85976 0.230524 -2.6957e-19)
(0.756754 0.216116 1.58048e-19)
(0.931589 0.0741714 -1.70986e-19)
(0.947599 0.121316 0)
(0.925653 0.132572 7.31546e-20)
(0.865509 0.108976 2.94583e-19)
(0.837744 0.0699244 -1.84829e-19)
(1.17362 3.36411 -3.05692e-19)
(1.22527 3.28566 0)
(1.13947 3.38173 -6.0089e-19)
(0.63867 3.54021 5.25286e-19)
(0.850386 3.10751 1.93493e-20)
(0.514389 0.848896 2.54791e-19)
(0.420731 0.843292 0)
(0.32416 0.489969 -6.30548e-20)
(0.459489 0.676313 3.56934e-19)
(0.550859 0.453777 -8.72941e-20)
(0.521269 0.509374 9.88251e-20)
(0.659738 0.525288 2.14956e-19)
(0.694792 0.542261 0)
(0.652663 0.603468 0)
(0.607805 0.542027 0)
(0.984827 0.596034 4.48358e-20)
(0.907678 0.53301 -2.2401e-19)
(0.931058 0.564865 1.74386e-19)
(0.964936 0.505174 -1.74206e-19)
(1.07516 0.477898 0)
(1.0667 0.559877 -4.43188e-20)
(0.845697 0.387137 -3.60198e-19)
(0.850087 0.375498 -4.3763e-19)
(0.795795 0.373168 2.79371e-19)
(0.794085 0.349102 -2.84936e-19)
(0.84285 0.309148 -2.23435e-19)
(0.792353 0.307854 2.74867e-19)
(1.0267 0.00568993 -2.09173e-19)
(1.02633 0.00610782 4.33345e-19)
(1.02937 -0.000513846 2.61441e-19)
(1.03343 0.00087143 -3.16334e-19)
(1.03303 0.00764644 0)
(1.02995 0.00852211 -5.18195e-19)
(0.0638767 1.63842 1.19689e-20)
(0.0451305 1.56899 0)
(0.0886865 1.686 8.50523e-20)
(0.0964408 1.66768 -7.59819e-20)
(0.0916253 1.51665 2.73846e-20)
(0.0891007 1.50275 0)
(0.017278 1.67451 0)
(0.00080369 1.47502 -1.8878e-21)
(0.00505282 1.41873 1.6965e-21)
(-0.00427594 1.54126 2.82492e-21)
(0.00691376 1.8821 -3.40558e-21)
(-0.011241 1.93349 3.38232e-21)
(0.494403 1.37026 -1.19018e-19)
(0.489036 1.37671 1.28178e-19)
(0.441938 1.28683 -2.32025e-20)
(0.430444 1.28739 3.73107e-21)
(0.623927 1.29676 0)
(0.543123 1.38502 3.27088e-20)
(0.559771 1.39639 -3.17377e-20)
(0.452949 1.27309 2.25117e-20)
(0.508087 1.23029 0)
(0.553307 1.19242 0)
(0.645614 2.41906 2.61907e-19)
(0.669473 2.46132 5.33353e-19)
(0.708296 2.47533 -3.65901e-19)
(0.607056 2.4564 -8.65529e-20)
(0.561169 2.5428 1.24223e-19)
(0.522501 2.524 -3.20934e-19)
(0.973637 2.37764 -2.54709e-19)
(1.00999 2.38808 0)
(0.916944 2.17256 -2.97349e-19)
(1.05173 2.67482 0)
(1.05476 2.66152 0)
(0.604784 2.25173 -7.22403e-20)
(1.03025 3.15612 4.53556e-20)
(0.897216 3.01555 1.1963e-20)
(0.284601 0.902289 0)
(0.322597 0.742692 -1.34206e-19)
(0.46501 0.712667 -1.34368e-19)
(0.399801 1.97888 0)
(0.478746 2.78531 -1.36988e-20)
(0.434015 2.56907 0)
(0.687866 0.668719 -3.58724e-19)
(0.774951 0.682736 4.8276e-19)
(0.802274 0.617186 -4.74036e-19)
(0.676884 0.633839 -4.6354e-20)
(0.726981 0.590051 -1.90209e-19)
(1.01503 2.76188 -3.42548e-20)
(1.04701 2.83246 -5.29993e-20)
(0.655828 2.13437 2.96115e-19)
(0.584075 1.71278 -2.04887e-19)
(0.711393 1.90553 -1.7763e-19)
(0.996497 2.46751 -4.58252e-20)
(0.997927 2.45473 1.10284e-19)
(0.667886 1.87115 9.9608e-21)
(0.461098 1.33512 6.42781e-20)
)
;

boundaryField
{
    wall-4
    {
        type            noSlip;
    }
    velocity-inlet-5
    {
        type            fixedValue;
        value           uniform (1 0 0);
    }
    velocity-inlet-6
    {
        type            fixedValue;
        value           uniform (0 3 0);
    }
    pressure-outlet-7
    {
        type            zeroGradient;
    }
    wall-8
    {
        type            noSlip;
    }
    frontAndBackPlanes
    {
        type            empty;
    }
}


// ************************************************************************* //
