/*--------------------------------*- C++ -*----------------------------------*\
| =========                 |                                                 |
| \\      /  F ield         | OpenFOAM: The Open Source CFD Toolbox           |
|  \\    /   O peration     | Version:  4.0                                   |
|   \\  /    A nd           | Web:      www.OpenFOAM.org                      |
|    \\/     M anipulation  |                                                 |
\*---------------------------------------------------------------------------*/
FoamFile
{
    version     2.0;
    format      ascii;
    class       volScalarField;
    location    "44";
    object      p;
}
// * * * * * * * * * * * * * * * * * * * * * * * * * * * * * * * * * * * * * //

dimensions      [0 2 -2 0 0 0 0];

internalField   nonuniform List<scalar> 
918
(
0.567789
1.21678
0.00330067
0.567161
-0.0120305
1.1838
-0.488204
0.718749
0.547944
-0.0841197
-0.0160975
0.544176
1.04446
0.809467
-1.1121
-0.00355733
0.670635
-0.366759
0.546997
-0.0248653
0.753811
0.554522
0.557553
0.548138
0.613102
0.788066
0.925225
0.0194915
0.0037576
0.0011812
-0.0110424
-0.038376
-0.0284168
1.06746
1.11853
1.14121
0.516107
0.343903
-0.353863
-0.420813
-0.413543
-0.532032
0.712515
0.711927
-0.174703
0.721623
0.72807
0.535096
0.547308
0.548215
0.549281
0.548239
0.549632
0.425561
-0.0870936
-0.119204
-0.0636431
-0.0558615
0.0765613
-0.0183833
-0.0193659
-0.0149689
-0.0173117
0.466431
0.539672
0.536773
0.549419
0.558523
1.15633
1.12826
1.15439
1.06804
1.08454
1.02246
0.99502
0.830969
0.852635
0.793699
0.781526
-1.54905
-2.50991
-0.517171
-0.263923
-0.0118005
0.00299882
0.0157329
0.663546
0.662698
0.672517
0.682126
1.09607
-0.365175
-0.473573
0.547129
0.545929
0.554302
0.554998
0.551012
0.550105
-0.0242496
-0.0231715
-0.0223826
-0.0251628
-0.0261627
0.742846
0.740489
0.548675
0.545691
0.565218
0.586207
0.577901
0.294711
0.616514
0.629813
0.613466
0.77832
0.77287
0.781625
0.898841
0.861579
0.96243
0.985781
0.0154693
0.00223148
-0.00893865
-0.0152863
-0.0137066
0.512015
0.504687
0.531245
0.519482
0.521936
0.259679
0.124762
0.429535
0.454628
-0.268218
-0.32832
-0.418014
-0.442125
-0.556102
0.615296
0.702969
0.700907
-0.191672
-0.117643
-0.246949
-0.0443487
-0.105002
0.52546
0.532398
0.527439
0.542882
0.537373
0.539326
0.551563
0.548642
0.550198
0.488055
0.611648
0.351825
0.317415
-0.225961
-0.13753
-0.228626
-0.0424789
-0.0365811
0.0912068
0.117216
0.063412
0.0524484
-0.0306381
-0.0219658
-0.0262648
-0.0167713
-0.0197298
0.459337
0.448444
0.478879
0.486246
0.529494
0.530698
0.534136
0.532556
0.9459
0.968294
0.97572
0.949496
-3.50959
-6.31017
0.0645527
0.202839
-0.00465908
-0.00911891
0.00231418
-0.00384731
0.00164915
-0.000905233
0.0132376
0.011604
0.0175762
0.0206154
0.652895
0.652891
1.01558
1.01745
0.995621
0.946408
0.535248
0.537356
0.542889
0.538753
-0.0202036
-0.0227259
-0.0232177
0.729582
0.736651
0.734656
0.257251
0.169752
0.344466
0.372727
0.644752
0.633174
0.642987
0.674893
0.710085
0.993218
1.01137
1.00969
1.01798
1.06203
1.07846
1.04374
0.491904
0.501643
0.496731
0.53442
0.532142
0.533067
0.52864
0.530095
0.527927
-0.0270374
-0.41031
0.503869
0.522307
0.503646
0.509227
0.6949
0.772301
0.683821
0.6933
0.691159
0.0223508
-0.035238
0.273589
0.239912
0.400259
0.43595
0.415288
0.917054
0.877443
0.927466
0.901008
0.862321
0.888517
-0.361896
-1.87298
-0.985765
0.555935
0.368542
0.456516
0.0342627
0.0165787
0.0228782
1.01031
1.08696
0.667443
0.83696
0.843496
0.748263
0.779264
0.834604
0.75837
0.794334
0.830743
0.812503
0.572213
0.516141
0.527219
0.842326
0.899046
0.141947
0.0842935
0.0400067
0.136459
0.193001
0.167589
1.04889
0.954962
1.02698
0.545442
0.546145
0.00566825
-0.000422781
0.550325
0.550372
-0.00864233
0.000807426
0.439425
-0.821476
0.126016
0.538824
0.528976
0.545955
-0.0664042
0.379978
-0.0172269
0.0732281
0.0156236
0.542042
0.47713
0.437265
0.0112695
-0.012618
-0.0207103
-0.195656
0.543114
0.541423
0.545425
0.546394
0.547059
-0.00631839
-0.00159048
-0.00320566
-0.0220721
-0.0198056
-0.0242407
0.510334
0.528311
-0.151217
0.545568
0.547693
0.547517
0.540718
0.546373
0.544606
-0.00231752
-0.00879184
-0.0121578
0.24073
0.366518
0.683915
0.775387
0.653212
0.426414
0.188504
0.584562
0.649432
0.553069
0.709341
0.697998
0.715208
0.191513
0.0417904
0.199488
0.141031
0.536686
0.535376
0.527235
0.524267
0.540823
0.538936
0.543487
0.540485
0.54343
0.544824
-0.0247608
-0.0491758
-0.062526
-0.129114
0.336269
0.596486
0.276522
0.30683
0.167156
-0.0114355
-0.0116146
-0.0157451
-0.0216071
0.0272584
0.000586373
0.067721
0.0685486
0.0370558
0.0112825
0.0188515
0.00599273
0.0103324
0.535283
0.533647
0.539988
0.548791
0.486527
0.490281
0.455876
0.476234
0.461685
0.402201
0.43649
0.412009
0.00398863
0.0155074
0.0065182
-0.00643596
-0.00104228
-0.0157895
-0.0122508
-0.0140059
-0.00595956
-0.0119653
-0.0174254
-0.0240963
-0.155269
-0.269271
1.00162
0.933359
0.142859
0.532305
0.538728
0.535508
0.540335
0.54346
0.544299
0.542039
0.538605
0.528793
0.530463
0.527036
0.527742
-0.0869521
-0.223801
-0.0524816
-0.12323
0.153683
0.63561
0.378303
0.316785
0.311102
0.535956
0.944147
0.735217
0.718583
0.73764
-0.327043
0.0684766
-0.260767
0.359123
0.181238
0.682724
0.732351
0.75394
0.701567
0.653857
-0.0967849
0.567068
-0.0476629
0.00137287
0.199233
0.0833273
0.719128
0.681392
0.685452
0.704439
0.722675
0.687664
0.670426
0.6651
0.699913
0.703569
0.511132
0.271865
0.224768
0.18643
0.663944
0.548841
0.604278
0.515994
0.531739
0.534453
0.533054
0.515072
0.522541
0.518155
0.524301
0.527638
0.536538
0.536926
0.532298
0.534457
-0.0296102
-0.0325513
-0.00778436
-0.117519
-0.108132
-0.167809
-0.0447213
0.0951335
0.0583701
0.251945
0.358077
0.0706351
-0.0436475
-0.0145659
0.0212516
0.196663
0.222048
0.0997507
0.187084
0.176202
0.159826
0.261306
0.266462
-0.000392386
-0.0041543
-0.0045867
-0.00707985
0.0439298
0.115995
0.125675
0.0185804
0.0139409
-0.012265
-0.0142109
0.00326628
-0.000730166
0.00210901
0.0382971
-0.0379115
-0.00586483
0.0092558
0.0205621
0.0156396
0.0108102
0.527826
0.530025
0.529679
0.53734
0.555114
0.571097
0.528414
0.508346
0.499301
0.502283
0.475845
0.485994
0.481899
0.495316
0.515758
0.524868
0.522471
0.525136
0.507961
0.509586
0.496585
0.5002
0.475729
0.456902
0.445402
-0.028158
0.00945123
0.00197803
-0.0253791
0.0051112
-0.0078605
0.00732863
0.0239822
0.0101245
0.00582338
-0.00383111
-0.0111198
-0.00759626
-0.0598075
0.0234901
-0.168636
-0.203375
-0.272374
0.905254
1.02619
0.827892
0.603035
0.617484
0.858256
0.945024
0.565355
0.751597
0.77549
0.589905
0.857588
0.537106
0.53672
0.534319
0.533797
0.53502
0.0030409
0.105215
0.111997
0.168906
0.28512
0.398466
0.320802
0.197005
0.329723
0.333591
0.62929
0.642883
0.597197
0.620062
0.620691
0.441778
0.518136
0.571506
0.527271
0.576901
0.598004
0.555686
0.58692
0.536637
0.492212
0.488798
0.43786
0.459285
0.436111
0.417879
0.526948
0.504654
0.515003
0.505232
0.52475
0.548781
0.545589
0.577703
0.588784
0.509306
0.466187
0.476107
0.505694
0.466395
0.480917
0.496733
0.23625
0.13596
0.221149
-0.0679106
0.0101982
-0.00454408
-0.0517575
-0.00490868
0.280512
-0.414983
-0.389589
-1.0212
0.507761
0.974241
0.670917
0.64409
0.719577
0.699827
0.704623
0.725468
0.730264
0.654447
0.671595
0.675055
0.636799
0.660065
0.682316
0.679389
0.537306
0.405639
0.400204
0.354087
0.225707
0.262025
0.464246
0.385995
0.31097
0.312692
0.4765
0.363226
0.431658
0.469548
0.400923
0.355043
0.560214
0.624952
0.614858
0.589591
0.507791
0.522365
0.546585
0.582336
0.608834
0.640576
0.523973
0.529779
0.531032
0.528565
0.525767
0.528737
0.528882
0.531414
0.532186
0.535124
0.534138
-0.0168876
-0.00507338
-0.0190525
-0.0256862
0.0039221
-0.000477693
0.0439461
0.0298245
0.0145915
0.0210507
-0.00537899
-0.00978452
-0.00451917
0.00480935
0.121095
0.134282
0.118364
0.0787912
0.265749
0.396537
0.46711
0.345403
0.238564
0.262566
0.285043
0.0124505
0.0390013
0.026124
0.0659536
0.057987
-0.00858821
-0.012843
-0.010795
-0.00441936
0.00638262
-0.0130643
-0.0195538
-0.00923461
-0.0142281
-0.0164335
-0.0209205
0.510548
0.504091
0.505591
0.499624
0.498378
0.512392
0.516631
0.518514
0.523862
0.52596
0.516371
0.521901
0.525555
0.00587116
-0.0172223
-0.0219892
-0.00562439
-0.0108873
-0.0102086
-0.00863612
0.131594
0.0613491
0.0657888
0.0204563
-0.107703
-0.0503771
0.495903
0.494279
0.489584
0.726096
0.576429
0.495467
0.591424
0.696809
0.282074
0.480802
0.313784
0.897407
0.790573
0.937137
0.551605
0.250042
0.408225
0.458068
0.265416
0.338156
0.340033
0.227022
0.259237
0.292795
0.394529
0.271858
0.246889
0.00413705
0.192117
0.308657
0.289539
0.418084
0.480468
0.268384
0.189216
0.144107
0.620138
0.6379
0.654365
0.627466
0.650135
0.587091
0.57536
0.593456
0.603162
0.598979
-0.748551
-0.455642
-1.40029
-0.71585
-0.264255
0.538846
0.502997
0.779433
0.662589
0.721885
0.706244
0.663062
0.629818
0.645862
0.675594
0.368625
0.480765
0.455266
0.460281
0.360796
0.292485
0.594695
0.588685
0.624164
0.647757
0.615862
0.647771
0.521718
0.521383
0.520966
0.517304
0.51561
0.517871
0.0824396
0.0512396
0.0862182
0.0671663
0.0445633
0.0330305
0.015232
0.00627474
-0.00289201
-0.00394952
0.00794889
0.0136587
0.173951
0.114597
0.0374731
0.0663081
0.00712858
-0.0593197
-0.0775562
0.0235176
0.11676
0.107203
0.413669
0.665686
0.486187
0.654939
0.494288
0.550197
0.479973
0.47287
0.499632
0.386965
0.466281
0.242341
-0.264309
-0.172198
0.795776
0.812037
0.594968
0.41223
0.181538
0.367221
0.560923
0.494711
0.532963
0.602525
0.592981
0.0240756
0.0879691
0.356555
0.583896
0.242462
0.234549
0.228711
0.405952
0.327931
)
;

boundaryField
{
    wall-4
    {
        type            zeroGradient;
    }
    velocity-inlet-5
    {
        type            zeroGradient;
    }
    velocity-inlet-6
    {
        type            zeroGradient;
    }
    pressure-outlet-7
    {
        type            fixedValue;
        value           uniform 0;
    }
    wall-8
    {
        type            zeroGradient;
    }
    frontAndBackPlanes
    {
        type            empty;
    }
}


// ************************************************************************* //
