/*--------------------------------*- C++ -*----------------------------------*\
| =========                 |                                                 |
| \\      /  F ield         | OpenFOAM: The Open Source CFD Toolbox           |
|  \\    /   O peration     | Version:  4.0                                   |
|   \\  /    A nd           | Web:      www.OpenFOAM.org                      |
|    \\/     M anipulation  |                                                 |
\*---------------------------------------------------------------------------*/
FoamFile
{
    version     2.0;
    format      ascii;
    class       volVectorField;
    location    "44";
    object      U;
}
// * * * * * * * * * * * * * * * * * * * * * * * * * * * * * * * * * * * * * //

dimensions      [0 1 -1 0 0 0 0];

internalField   nonuniform List<vector> 
918
(
(0.985163 -0.000503164 0)
(0.00501081 2.96625 0)
(0.00418628 0.840813 0)
(0.979703 0.00214799 0)
(-0.0116952 2.04674 3.68242e-20)
(-0.00704485 2.94879 -2.53577e-18)
(0.818703 1.15687 4.30085e-19)
(0.250266 0.120767 -1.5971e-20)
(0.999907 -0.000283475 0)
(0.0608796 0.801384 0)
(0.0130897 0.611355 0)
(0.734788 -0.0165845 0)
(0.0111395 2.93032 0)
(0.00255797 2.79517 0)
(-0.0175609 3.15454 7.66756e-19)
(-0.0204253 1.89703 2.84177e-22)
(0.316281 0.032722 1.04789e-18)
(0.189313 1.16891 3.00984e-19)
(0.962767 0.00501881 0)
(-0.0130317 0.561294 0)
(0.0480523 0.16229 -7.56586e-19)
(1.00198 -0.00497979 0)
(1.00022 -0.00979083 0)
(0.975728 -0.00643997 0)
(0.584013 -0.0384128 0)
(0.0157841 2.6395 0)
(-0.0149049 2.91004 9.37365e-19)
(0.00792352 0.916315 0)
(0.00269331 1.15656 0)
(0.00490577 0.892189 0)
(-0.0148526 2.61111 0)
(-0.000670911 2.10513 -2.94e-20)
(-0.00962131 1.86782 0)
(-0.0206 2.9876 -9.13497e-23)
(-0.0166881 3.00529 1.97072e-18)
(0.00210264 3.00018 0)
(0.870844 -0.00953007 0)
(0.40479 0.938383 1.86681e-19)
(0.797039 1.17459 -4.77767e-19)
(0.94271 1.01288 5.21116e-19)
(0.66894 1.26722 -9.89827e-20)
(0.669194 1.2523 5.72203e-19)
(0.288616 0.195295 1.55811e-20)
(0.264528 0.0932329 0)
(1.13087 0.548451 0)
(0.25535 0.187389 7.1194e-20)
(0.221175 0.120757 -7.38774e-20)
(0.919801 -0.00744893 0)
(1.00027 0.000154853 0)
(0.999909 0.000336755 0)
(1.00363 -0.00776837 0)
(1.00096 -0.000924685 0)
(1.00017 3.07777e-05 0)
(0.0768338 1.81468 -8.14035e-19)
(0.0299941 0.983188 0)
(0.0970398 0.867438 0)
(0.0131135 0.934594 0)
(0.0356504 0.736661 0)
(0.0140547 2.00223 0)
(0.00833658 0.834314 0)
(0.0091449 0.630439 0)
(0.0107023 0.821326 0)
(0.0185084 0.591586 0)
(0.839048 -0.0157994 0)
(0.845756 0.0295758 0)
(0.767708 -0.00520338 0)
(0.815492 0.0391493 0)
(0.703896 -0.0190285 0)
(0.0146895 3.00041 9.40913e-19)
(0.0115012 3.00805 0)
(0.00611051 3.00277 0)
(0.0135547 2.99737 1.06903e-23)
(0.00796366 2.95846 -1.39843e-18)
(0.0144974 2.98199 0)
(0.0108659 2.90357 0)
(0.0244307 2.9305 2.16179e-24)
(0.00456149 2.82525 0)
(0.0310449 2.91635 0)
(-0.00516011 2.74548 0)
(0.308174 3.55107 0)
(-0.131769 3.63249 0)
(0.139467 3.24496 -7.1355e-19)
(-0.0128577 2.98077 0)
(-0.0237053 2.00331 0)
(-0.0072644 2.1606 -2.80279e-22)
(-0.0118343 1.90184 -1.52085e-20)
(0.417648 0.142917 -3.62688e-19)
(0.321527 0.0178648 -3.50292e-19)
(0.39566 0.154984 -1.09189e-18)
(0.299581 0.0456788 -7.19355e-19)
(0.223732 0.964827 0)
(0.271035 1.315 -3.59608e-19)
(0.366911 1.24984 6.00596e-19)
(0.987473 0.0085557 0)
(0.941916 0.00583645 0)
(1.0003 0.000578365 0)
(1.00286 0.00930588 0)
(1.00302 0.00846157 -2.79854e-18)
(0.991913 0.00969969 2.11337e-18)
(-0.011341 0.80299 0)
(-0.00330321 0.555201 0)
(-0.0201465 0.970967 0)
(-0.00496673 0.820292 0)
(-0.0057111 0.554288 0)
(0.0783843 0.164521 2.33799e-19)
(0.137508 0.1403 0)
(0.993541 -0.00837919 0)
(0.954429 -0.00652139 0)
(0.762032 0.0464942 0)
(0.697689 0.0570814 0)
(0.664141 -0.0312365 0)
(0.963576 -0.00821997 0)
(0.614239 0.0762293 0)
(0.444696 -0.0108875 1.55757e-18)
(-0.0366996 2.86321 7.03797e-19)
(0.0414025 2.90984 0)
(0.0543531 2.88527 0)
(-0.00436203 2.69976 0)
(-0.0131292 2.98514 8.89371e-19)
(-0.017973 2.89508 0)
(-0.0154416 2.98805 -2.75401e-18)
(-0.0132827 2.92518 9.42443e-19)
(0.0112538 1.34908 0)
(0.0298507 1.38554 0)
(-0.00654032 2.12318 3.14784e-22)
(-0.00430057 2.08306 0)
(-0.0210721 1.88039 0)
(0.938118 -0.00759114 0)
(0.856625 -0.00977338 0)
(0.863356 0.00613447 0)
(0.949299 -0.00800299 0)
(0.883738 -0.00810972 0)
(0.516941 1.13198 -2.35462e-19)
(0.566294 1.18334 0)
(0.368685 0.882809 3.46049e-20)
(0.310832 0.741748 0)
(0.902749 1.05208 -1.42484e-19)
(1.01313 0.85533 2.84195e-19)
(0.359973 1.36405 0)
(0.524813 1.32917 0)
(0.542791 1.28088 0)
(0.116728 0.181575 -3.03688e-19)
(0.321471 0.187585 0)
(0.287858 0.0866494 2.03432e-19)
(0.984991 0.911356 0)
(1.05405 0.763483 0)
(1.07741 0.703715 -2.16972e-19)
(1.11195 0.608579 0)
(1.16421 0.395305 5.528e-20)
(0.957582 -0.00883006 0)
(0.962411 -0.0100894 0)
(0.90156 -0.00794628 0)
(0.984177 -0.00916691 0)
(0.974659 -0.00936781 0)
(0.937075 -0.00636604 0)
(1.00019 0.00233663 0)
(1.0009 0.00140772 0)
(0.99991 0.000852725 0)
(0.0352466 2.06626 4.49399e-19)
(0.120349 1.75683 0)
(0.0166323 2.18151 7.00178e-19)
(0.0508408 1.86924 -5.90838e-19)
(0.104706 1.1771 -2.46086e-19)
(0.0447732 1.0628 0)
(0.14373 1.01866 0)
(0.00463905 0.894702 0)
(0.0160935 0.685684 0)
(-0.00173806 2.23693 -1.15773e-21)
(0.0222246 2.0073 0)
(-0.00306506 2.24007 -5.04617e-20)
(0.0171733 2.01135 8.80131e-20)
(0.0058281 0.868637 0)
(0.00605903 0.847999 0)
(0.00620864 0.653842 0)
(0.00135169 0.802882 0)
(0.00152121 0.578503 0)
(0.936171 0.0091824 0)
(0.846893 -0.0152593 0)
(0.925985 -4.27437e-05 0)
(0.840769 -0.012863 0)
(0.811992 0.000693674 0)
(0.901081 0.0202275 0)
(0.876817 0.0247508 0)
(0.788791 -0.00163497 0)
(0.00562075 3.06471 -8.81154e-21)
(0.0165721 3.05782 0)
(0.0146172 2.96905 0)
(0.00859931 2.87625 0)
(0.925105 3.96728 0)
(1.23961 3.30008 9.30246e-19)
(0.0697897 3.07302 0)
(-0.0287986 2.90482 0)
(0.00834541 1.40491 0)
(-0.0285559 1.70902 0)
(-0.000872158 1.5544 0)
(-0.030888 2.5666 -5.65854e-21)
(-0.0131921 2.25702 0)
(-0.0204067 2.40382 0)
(0.0100427 1.93495 2.17607e-21)
(-0.00417434 2.23702 1.09552e-20)
(-0.00513753 2.19542 1.52964e-20)
(-0.00320631 1.915 0)
(0.450518 0.12301 5.47579e-19)
(0.357382 0.00796676 -5.37647e-19)
(0.259899 1.57759 0)
(0.272167 0.739395 -3.18409e-19)
(0.177244 1.66327 -1.06681e-18)
(0.227214 1.20546 1.06937e-18)
(0.902185 0.00646789 0)
(0.967478 0.0110721 0)
(0.974603 0.0107873 0)
(0.923411 0.0064728 0)
(-0.000497211 0.790456 0)
(-0.0148565 0.792445 0)
(0.000635016 0.560158 0)
(0.219199 0.181026 6.5662e-19)
(0.183323 0.167431 -7.77474e-19)
(0.184894 0.128589 0)
(1.08789 0.0832043 2.88839e-20)
(1.07049 0.0377606 0)
(1.00559 0.0387041 0)
(0.901505 -0.00686457 0)
(0.4874 0.105007 0)
(0.535791 0.087259 -2.4904e-18)
(0.396445 0.00514746 9.32433e-19)
(0.00897239 2.9807 7.50952e-19)
(-0.0331653 2.86538 4.55856e-20)
(0.00368094 3.05025 -1.86306e-20)
(0.0201427 3.04337 6.62431e-19)
(-0.0149891 2.99656 3.09258e-20)
(-0.0129768 2.94946 -1.2435e-22)
(-0.0172846 3.01193 -5.71157e-19)
(0.0149028 3.02372 4.13636e-19)
(0.00740301 3.03689 -6.56371e-19)
(0.932938 -0.00165549 0)
(0.93876 -0.00353107 0)
(0.844719 -0.00929643 0)
(0.956677 0.0117972 0)
(0.942945 0.0130535 0)
(0.881735 0.00601803 0)
(0.917798 0.0165878 0)
(0.926366 0.0147909 0)
(0.83856 0.00336836 0)
(0.720164 1.41034 3.43492e-20)
(0.753611 1.51935 0)
(0.186902 0.325465 7.24377e-20)
(0.220537 0.66098 5.85471e-19)
(0.260728 0.720795 -3.4082e-19)
(0.26565 0.533959 6.77502e-19)
(0.338147 0.793564 1.59711e-18)
(0.135479 0.222772 3.75878e-19)
(0.369495 0.173221 7.63099e-19)
(0.348361 0.18357 1.98956e-19)
(0.295194 0.0660516 3.79394e-19)
(1.15434 0.453218 3.65292e-20)
(1.17382 0.250628 3.15242e-20)
(0.00780429 2.22952 2.74692e-19)
(0.0466923 1.93761 0)
(0.965891 0.0284622 0)
(0.939931 0.0132398 0)
(0.86465 -0.0185273 0)
(0.0113524 3.07455 0)
(0.0198116 2.94407 1.21746e-18)
(0.0164383 2.95642 0)
(0.00626331 2.85061 -1.20795e-18)
(0.00618181 3.09107 2.95962e-19)
(0.0071366 3.08227 0)
(0.786653 1.82185 -1.58622e-19)
(1.24741 2.49952 4.03554e-19)
(0.768789 1.9615 -1.23393e-18)
(0.0201587 2.98173 -6.50328e-19)
(0.0355761 3.00136 0)
(-0.0339411 2.87849 0)
(-0.00595162 2.21811 -1.26425e-20)
(-0.00736504 2.23995 -3.0272e-20)
(0.0126786 1.97073 -7.62848e-21)
(0.276611 1.38547 1.03566e-18)
(0.230905 0.527511 -7.10368e-19)
(0.0636812 1.99061 7.84501e-19)
(0.136249 1.87862 -9.3063e-19)
(0.17974 1.49777 9.22102e-20)
(0.00236128 3.11914 -1.84806e-18)
(0.0129979 3.11906 2.00607e-18)
(-0.00894234 2.98113 8.19709e-19)
(-0.00415829 2.97755 -7.75637e-19)
(-0.0211354 2.88101 -8.34858e-19)
(0.0085865 3.10025 -2.20418e-18)
(0.00221846 3.10496 2.17979e-18)
(0.274646 0.68482 0)
(0.239938 0.67503 -1.20671e-18)
(0.0962025 0.223909 5.35137e-19)
(0.352468 0.919462 1.11649e-18)
(0.190807 0.267672 -1.72132e-18)
(1.17011 0.170596 7.20472e-20)
(1.17448 0.304293 0)
(1.15879 0.119554 -1.77579e-20)
(-0.000629691 2.24855 -1.82532e-21)
(0.00233842 2.23935 0)
(0.031462 1.97264 0)
(0.340063 1.29366 -3.72669e-19)
(0.3705 1.13155 -8.05702e-19)
(0.204653 0.366984 1.43464e-18)
(1.00587 -0.0108565 0)
(1.00766 -0.00764959 5.1647e-19)
(0.00929983 1.3233 0)
(-0.013561 1.29755 0)
(1.00222 0.00350379 1.80415e-21)
(1.00366 0.00944823 1.05413e-18)
(-0.0183227 2.55104 7.16338e-21)
(-0.0251277 2.59354 0)
(0.0353544 3.17834 4.36065e-19)
(0.394966 3.49017 0)
(1.16182 0.647075 -6.91027e-20)
(1.01292 0.0130806 -2.15165e-21)
(1.02126 -0.0103795 0)
(1.0017 0.000116028 7.61995e-23)
(0.102709 1.35965 0)
(0.145315 2.57378 0)
(0.0214212 1.30076 0)
(0.00167032 2.62657 5.02749e-20)
(-0.0193296 2.58541 2.10237e-20)
(1.0011 0.0288245 2.46116e-21)
(1.06192 0.00367469 0)
(1.09498 0.0234369 0)
(-0.0243529 1.74288 0)
(-0.022737 2.59452 0)
(-0.00180339 1.29029 0)
(0.295488 1.47161 -1.53702e-19)
(1.01127 -0.00964676 0)
(1.00939 -0.0149312 0)
(1.00238 0.000735614 6.60074e-19)
(1.00547 -0.00482306 -7.7568e-19)
(1.00118 -0.000998673 0)
(-0.00681597 1.46165 0)
(0.00130549 1.36785 0)
(0.00787618 1.42381 0)
(-0.00263946 1.27766 0)
(-0.00508725 1.25634 0)
(-0.00553216 1.23055 0)
(1.03465 -0.00635218 0)
(1.02036 0.0157041 -9.08402e-22)
(0.801314 1.26555 2.42719e-19)
(1.00222 0.000306543 -6.57067e-19)
(1.00407 0.00524671 7.69546e-19)
(1.00117 0.00206609 0)
(1.01278 0.0103061 6.543e-19)
(1.00801 0.0082942 -7.92553e-19)
(1.00858 0.0146906 0)
(-0.0262446 2.62226 0)
(-0.0266673 2.60126 -1.08808e-20)
(-0.0255839 2.61512 8.40577e-21)
(1.229 0.260222 6.24582e-19)
(1.15682 0.0841385 0)
(0.042679 3.07724 -9.6066e-19)
(0.065276 2.85405 -6.98599e-20)
(0.141191 3.19257 1.46909e-18)
(0.135924 3.22147 -2.15849e-19)
(0.134542 3.2335 0)
(0.0199493 3.13767 2.48786e-19)
(0.0761032 3.16004 9.47828e-19)
(0.0685449 3.18614 -4.68625e-19)
(0.0227907 3.12939 0)
(0.628312 0.283437 0)
(0.557978 0.332114 0)
(1.12845 0.683599 1.66997e-19)
(1.12331 0.807815 -1.62349e-19)
(1.18849 0.570522 0)
(1.21891 0.506562 0)
(1.01613 0.0133028 -1.21984e-18)
(1.01499 0.0142449 1.53114e-18)
(1.02524 -0.0099126 0)
(1.02332 -0.0118929 0)
(1.00643 0.00256987 0)
(1.01041 0.00369776 0)
(1.00458 0.00182763 0)
(1.0098 0.00619797 0)
(1.00785 0.00597028 0)
(1.0045 0.00465937 0)
(0.0910322 1.35683 0)
(0.0851417 1.3275 0)
(0.122656 1.39298 0)
(0.137257 1.40397 0)
(0.145408 2.59823 0)
(0.185576 2.66589 -4.41212e-19)
(0.100925 2.65434 0)
(0.0866763 2.65747 2.16053e-19)
(0.0402971 2.67979 -1.8113e-19)
(0.0167512 1.31237 0)
(0.0223409 1.23992 0)
(0.025252 1.32385 0)
(0.0262724 1.2667 0)
(0.00462002 1.98001 -1.77549e-20)
(-0.0184767 2.61306 3.28638e-21)
(-0.0070803 2.66832 4.09143e-20)
(-0.0166191 2.68846 0)
(-0.021818 2.62038 -4.65066e-20)
(-0.0221134 2.61521 -1.14592e-20)
(0.0141511 1.97915 1.62548e-20)
(-0.00506298 2.39893 -4.4101e-21)
(-0.0112403 2.42039 -4.64047e-20)
(1.01107 0.0366227 1.24368e-18)
(1.00648 0.0162061 -1.53605e-18)
(1.00233 0.043537 -1.24444e-18)
(0.980007 0.0224111 1.58651e-18)
(1.06317 0.00751615 0)
(1.04858 -0.00862326 0)
(1.0924 0.0332664 0)
(1.07284 0.0117692 0)
(1.07064 -0.000202435 0)
(1.13751 0.0800478 0)
(1.10905 0.0425424 0)
(1.11211 0.030596 0)
(-0.0250961 2.4426 -7.6937e-22)
(-0.013305 2.01833 0)
(-0.0155102 2.22523 0)
(-0.0230691 2.61486 -3.62607e-21)
(-0.021462 2.62334 -1.96313e-22)
(0.00552837 1.56935 -1.60828e-20)
(0.00197052 1.49673 1.63451e-20)
(-0.00685334 1.38272 0)
(-0.00920875 1.38933 0)
(-0.0124089 1.38501 0)
(0.00230928 1.29286 0)
(0.00924565 1.23624 0)
(0.377661 1.48714 2.47478e-19)
(0.418 1.49063 1.36068e-19)
(0.597226 2.44833 -2.42015e-19)
(0.400999 2.54257 7.13859e-19)
(0.35044 2.06595 7.55452e-20)
(1.02098 -0.00819159 0)
(1.01546 -0.00978986 0)
(1.01489 -0.0155234 0)
(1.00745 -0.00116519 0)
(1.00494 -0.00094093 0)
(1.00776 -0.00475502 0)
(1.00924 -0.00370074 0)
(1.01417 -0.0044671 0)
(1.02108 0.0161289 1.19437e-18)
(1.01795 0.0157041 -1.53044e-18)
(1.02151 0.0180919 -1.20299e-18)
(1.01936 0.0167804 1.50461e-18)
(0.766664 1.31505 0)
(0.70311 1.36635 2.26439e-19)
(0.877621 1.21216 7.98469e-20)
(0.921067 1.16196 -1.06185e-19)
(1.1579 2.60795 2.98944e-19)
(0.798269 0.114749 6.07566e-19)
(1.16011 0.105265 0)
(1.20634 0.189462 -5.01917e-19)
(1.19075 0.151373 -2.12229e-20)
(1.00458 0.149371 0)
(0.134622 2.96024 5.63531e-19)
(0.111712 2.86588 -1.21856e-18)
(0.0217742 2.37393 8.20616e-19)
(0.09051 -0.0445017 -3.65683e-19)
(0.339859 3.41938 -2.02992e-19)
(0.19385 3.31214 0)
(0.237117 3.35392 2.64364e-19)
(0.244371 3.03343 -1.85798e-18)
(0.33915 3.19274 0)
(0.00741615 3.12078 4.82413e-20)
(0.0169862 3.12975 -5.67175e-19)
(0.0155895 3.1258 8.34793e-19)
(0.035828 3.13966 0)
(0.0341373 3.15062 0)
(1.21599 2.60683 0)
(0.543592 0.83053 -5.4053e-19)
(1.04596 0.984037 8.65232e-21)
(0.980524 1.06533 0)
(0.835431 0.969201 -1.18326e-19)
(1.07187 0.87813 2.85613e-20)
(0.360277 0.380173 -9.41212e-19)
(0.678504 0.312361 -2.09328e-20)
(0.633258 0.223004 4.32846e-19)
(0.579551 0.365936 3.19806e-20)
(0.491403 0.331429 -1.28759e-18)
(0.649895 0.32634 0)
(0.701909 0.41659 7.35303e-19)
(0.710289 0.417502 0)
(0.614108 0.354712 0)
(0.572389 0.276309 0)
(0.808211 0.613076 4.34362e-19)
(1.22936 0.282491 -5.27155e-19)
(1.2278 0.418112 0)
(1.23666 0.358639 0)
(0.72949 0.186664 6.42308e-19)
(0.854976 0.535973 -3.99343e-19)
(0.749968 0.506675 7.07852e-19)
(0.951755 0.42775 -7.77466e-19)
(1.01961 0.0147655 8.20856e-19)
(1.01778 0.0142369 -8.25572e-19)
(1.01593 0.0154951 0)
(1.0361 -0.00589866 0)
(1.02968 -0.00855019 -7.73578e-19)
(1.02771 -0.0120825 7.65913e-19)
(1.02499 0.0100082 0)
(1.02361 0.0136182 0)
(1.01142 0.00408165 0)
(1.01427 0.00902736 0)
(1.01514 0.00399525 0)
(1.01424 0.00277992 0)
(0.0620507 1.34169 0)
(0.0628612 1.29746 0)
(0.143419 1.36711 -1.25083e-20)
(0.269877 1.46867 7.83731e-20)
(0.163925 1.44041 1.62585e-19)
(0.195621 1.44742 -2.66673e-19)
(0.165212 1.39104 0)
(0.129599 1.59452 -9.20456e-20)
(0.11415 1.56752 0)
(0.347949 2.01823 -1.09819e-19)
(0.344771 2.35007 6.37511e-19)
(0.186265 1.45143 8.02694e-20)
(0.261541 1.38116 1.59149e-20)
(0.196159 1.371 -1.2875e-20)
(0.271439 1.32311 -1.17219e-19)
(0.238783 1.577 0)
(0.260569 1.61644 1.238e-19)
(0.0321687 2.26365 -4.00287e-20)
(0.0442174 2.66836 0)
(0.0660001 2.40065 1.57939e-19)
(0.0619347 2.42105 0)
(0.0702861 2.67021 -2.39275e-19)
(0.0507919 2.69866 0)
(0.0298077 1.41166 3.96868e-21)
(0.0363209 1.46438 0)
(0.0296224 1.3815 0)
(0.0241461 1.38324 -4.47778e-21)
(0.00209231 2.65399 -1.67525e-20)
(0.0311871 2.69747 2.07144e-19)
(0.0122274 2.72349 1.45541e-21)
(0.00689576 1.82745 1.46771e-20)
(-0.000994389 1.67566 6.34473e-21)
(0.0179484 1.29143 0)
(0.0239412 1.224 0)
(0.0480286 1.57509 7.5319e-21)
(0.0296509 1.448 1.98319e-21)
(0.0381211 1.51328 -2.35367e-21)
(0.0404476 1.59959 0)
(-0.0295199 2.27686 6.13421e-20)
(-0.0289689 2.56057 -2.42693e-20)
(-0.0173668 2.45546 -3.24723e-22)
(-0.000794727 1.84396 -1.77848e-20)
(-0.0234046 2.50548 -5.27524e-21)
(-0.0194815 2.44668 3.05936e-20)
(1.01944 0.0208698 -8.15725e-19)
(1.01554 0.0265615 8.1998e-19)
(1.01465 0.0162297 0)
(1.01223 0.0700916 1.1517e-18)
(0.990294 0.0589258 -1.29412e-18)
(0.948817 0.0433643 1.44951e-18)
(1.01371 0.107364 -1.5358e-19)
(1.04238 -0.00594549 0)
(1.05052 -0.00174904 7.38873e-19)
(1.03868 -0.0100286 -7.40356e-19)
(1.06984 0.0413736 -4.40191e-20)
(1.06373 0.0225153 3.7907e-19)
(1.0625 0.0542515 0)
(1.05319 0.0480825 -1.36308e-19)
(1.03241 0.0410998 0)
(1.02592 0.0375296 0)
(1.02783 0.0129873 0)
(1.02419 0.0157722 0)
(1.03995 0.0314261 2.80627e-19)
(1.03907 0.0261886 -6.19784e-19)
(1.05051 0.0327314 -2.97615e-19)
(1.04829 0.032593 -3.27505e-19)
(1.07008 0.0629468 6.40747e-19)
(1.09491 0.0506048 0)
(1.103 0.0944173 0)
(-0.0235237 2.28274 3.63876e-20)
(-0.0174998 2.02714 -1.14773e-21)
(-0.0169456 2.03169 0)
(-0.0306279 2.45459 -3.62248e-20)
(-0.02255 2.41008 1.89178e-21)
(-0.0313625 2.48311 2.61445e-21)
(-0.0205494 2.63008 1.00518e-20)
(-0.0214761 2.57261 -1.21032e-21)
(-0.0203873 2.52212 3.04915e-21)
(-0.0174223 2.62563 6.49484e-22)
(-0.0221709 2.62653 7.15924e-22)
(0.000831294 1.48179 -5.46233e-22)
(0.00696719 1.61819 -1.33882e-20)
(0.364029 1.43067 -1.01952e-19)
(0.364062 1.36912 4.80582e-20)
(0.64749 1.41527 -2.19034e-19)
(0.516049 1.48161 -1.33112e-19)
(0.571149 1.45015 0)
(0.592846 2.42472 2.12628e-19)
(0.660786 2.4179 3.41142e-19)
(0.410247 2.51634 8.48895e-20)
(0.40263 2.544 -6.35703e-19)
(0.511183 2.48882 6.23899e-19)
(0.552234 2.46215 0)
(0.488623 2.51715 -5.68677e-19)
(0.247671 2.59092 1.18343e-18)
(0.353328 2.56474 -8.10056e-20)
(0.283735 2.65238 -1.62636e-18)
(0.944894 2.38128 7.31845e-19)
(0.837 2.38437 0)
(1.01102 0.000451765 2.67763e-20)
(1.01526 -0.00548057 -2.17351e-20)
(1.01764 -0.00361843 -3.97054e-19)
(1.01495 -0.000947421 3.98985e-19)
(1.01237 0.00108267 0)
(0.635555 1.28535 0)
(0.658124 1.18222 0)
(0.765811 1.09402 0)
(0.65089 1.14579 0)
(1.18719 2.62232 5.85838e-20)
(1.07566 2.3682 0)
(0.839349 2.18478 3.87306e-21)
(0.825921 2.44736 0)
(0.923145 2.53873 -4.29398e-19)
(0.958702 2.49441 2.85793e-19)
(0.814499 0.171926 0)
(0.775234 0.143924 1.65395e-19)
(0.921051 0.143852 9.63004e-19)
(0.837043 0.146336 -3.59859e-19)
(0.803778 0.0836332 -1.1103e-18)
(1.07792 0.232778 -9.27234e-19)
(0.991711 0.290225 -1.58618e-20)
(0.92658 0.290847 8.88708e-19)
(1.00247 0.221173 7.42855e-19)
(0.952453 0.187958 -1.27993e-18)
(0.917126 0.18902 1.59965e-19)
(0.954224 0.253435 -3.41523e-19)
(0.931556 0.215738 0)
(0.992209 0.182877 6.31819e-19)
(1.04385 0.185657 0)
(1.0401 0.211889 0)
(1.10524 0.117125 2.98155e-19)
(1.06733 0.174364 -1.42485e-20)
(1.07261 0.233793 -1.6303e-19)
(1.1037 0.201194 0)
(1.0227 0.0451696 6.33111e-19)
(1.04051 0.0577777 7.89451e-19)
(1.03396 0.043961 -6.27957e-19)
(1.04327 0.0644978 -5.29002e-19)
(1.01916 0.0723939 -8.09903e-19)
(0.987872 0.156228 0)
(0.999106 0.103681 0)
(0.96615 0.0657791 -5.16433e-19)
(0.913989 0.088882 2.02828e-19)
(1.03852 0.102946 7.31589e-19)
(1.06803 0.120029 -8.60948e-19)
(1.07401 0.152886 7.69337e-19)
(1.02925 0.141793 0)
(1.07419 0.107258 0)
(1.05487 0.0898551 -3.52067e-19)
(1.04465 0.0941921 -5.99043e-19)
(0.581839 1.07613 1.42248e-19)
(0.612676 1.40613 -4.39064e-20)
(1.15765 2.73873 -2.31123e-19)
(1.22404 3.07995 2.25624e-21)
(1.24976 2.72125 -1.39986e-19)
(1.27954 2.70499 -2.63667e-20)
(1.2077 2.34546 -1.03045e-20)
(1.21141 2.98403 -9.60373e-20)
(1.23088 2.94934 2.38892e-19)
(1.21485 3.23339 -1.42537e-19)
(1.37547 2.96529 1.97103e-19)
(1.36569 2.88348 0)
(0.550782 0.838605 -5.06187e-20)
(0.132684 1.24874 5.82289e-19)
(0.536478 0.431146 6.08441e-19)
(0.37511 0.181068 6.70668e-19)
(0.52015 0.366366 7.27513e-19)
(0.546737 0.466335 -1.17051e-18)
(0.548257 0.467397 9.56014e-19)
(0.493064 0.382418 -3.67681e-19)
(0.408193 0.314424 8.32922e-19)
(0.734981 0.250465 -3.67835e-19)
(0.696537 0.276858 0)
(0.67219 0.197328 8.73435e-21)
(0.733605 0.505707 3.86903e-19)
(0.70607 0.47498 -1.41086e-18)
(0.616547 0.464401 1.46166e-20)
(0.624312 0.450461 0)
(0.681664 0.727253 4.08533e-19)
(0.838702 0.772702 4.1585e-19)
(0.761217 0.855765 -4.85988e-19)
(0.883333 0.80846 -1.65258e-19)
(0.912165 0.851394 -4.12492e-20)
(0.919912 0.851701 4.22459e-20)
(0.852818 0.645315 -7.20512e-19)
(0.933519 0.702081 1.53529e-19)
(0.989141 0.71591 0)
(0.980513 0.692063 -2.09912e-19)
(1.02161 0.328149 2.24121e-19)
(1.14392 0.297565 3.07496e-19)
(1.06473 0.268028 3.79302e-19)
(1.00956 0.359678 -4.50841e-19)
(1.05869 0.423765 0)
(1.11385 0.409936 0)
(0.916881 0.360887 5.97474e-21)
(0.840543 0.293176 0)
(0.879231 0.288887 4.18572e-19)
(0.907469 0.297381 -4.85676e-21)
(0.945629 0.430095 2.16762e-18)
(0.90479 0.488092 5.60666e-19)
(0.907663 0.4527 -5.95639e-19)
(0.824889 0.436579 6.37891e-19)
(0.808136 0.429853 3.82858e-19)
(0.777782 0.411827 -3.76339e-19)
(1.02717 -0.000484434 6.61428e-19)
(1.01999 -0.000121907 0)
(1.01848 0.000810096 4.31163e-19)
(1.02164 -0.00174069 -9.76765e-19)
(1.0223 0.00425502 4.74466e-19)
(1.0204 0.0111872 -9.93624e-19)
(1.02135 0.0105827 0)
(1.02065 0.0108552 -2.07033e-19)
(1.01598 0.00767504 5.19368e-19)
(1.01671 0.0104312 -2.59137e-19)
(1.01741 0.00977985 1.90856e-19)
(0.0283963 1.31657 0)
(0.0323487 1.35548 0)
(0.0423227 1.31878 0)
(0.0425148 1.27546 0)
(0.0707001 1.38117 6.2578e-22)
(0.0773014 1.35251 6.87643e-21)
(0.110424 1.51246 -2.57762e-20)
(0.0935158 1.36256 5.61484e-21)
(0.0341287 1.45325 -2.46035e-20)
(0.0379649 1.44631 1.92714e-20)
(0.061895 1.3655 -7.99933e-21)
(0.0540699 1.36731 1.05254e-20)
(0.0464174 1.34252 1.38848e-21)
(0.0381477 1.36477 -1.82819e-21)
(0.107036 2.37176 -1.7463e-19)
(0.0958154 2.41866 0)
(0.169821 2.0477 1.16515e-19)
(0.109056 1.71013 4.97429e-20)
(0.2294 2.04455 -9.53085e-20)
(0.204056 2.43736 0)
(0.264589 2.38869 -6.18796e-19)
(0.302428 2.38678 4.38912e-19)
(0.229126 2.00462 -2.65451e-19)
(0.152986 2.16496 1.75822e-19)
(0.14332 2.27642 0)
(0.0196852 1.8741 -3.28208e-20)
(0.00079758 2.3956 -7.98698e-20)
(0.00664262 2.14948 0)
(0.0123897 2.45761 -1.3709e-20)
(0.0282464 2.30219 2.80143e-20)
(0.0214674 1.39393 -1.93709e-21)
(0.0218597 1.38032 3.58543e-20)
(0.0209229 1.38446 -1.41438e-20)
(0.0242687 1.38375 -7.19613e-21)
(0.0292378 1.41548 0)
(0.0175021 1.36643 0)
(0.00911712 1.28819 -2.07737e-20)
(0.0114057 1.35607 5.14448e-21)
(0.015236 1.35823 0)
(0.0152102 1.28368 -1.54523e-20)
(0.0241545 1.216 3.23594e-20)
(1.04042 0.0113577 0)
(1.04645 0.00762772 -6.93196e-20)
(1.03854 0.0210474 -4.99724e-19)
(1.04802 0.0199356 0)
(1.05194 0.0197929 0)
(1.03628 0.0114151 -6.68325e-21)
(1.03094 0.0112691 8.02483e-19)
(1.03176 0.0162032 9.73028e-19)
(1.02578 0.0201144 0)
(1.02294 0.0204989 0)
(1.03513 0.0247674 4.98397e-19)
(1.02605 0.0260894 0)
(1.02431 0.0261224 0)
(-0.0147036 2.02258 0)
(0.00670799 1.64966 -4.96599e-21)
(-0.00274351 1.75757 -2.27559e-20)
(0.00540024 1.36587 0)
(-0.00634662 1.54361 -5.02455e-21)
(0.00420332 1.44615 4.63456e-21)
(0.00356233 1.37503 0)
(0.390365 1.66708 0)
(0.366711 1.29774 -9.02299e-20)
(0.301568 1.34148 0)
(0.42031 1.29724 3.29539e-20)
(0.466428 1.45736 0)
(0.447396 1.4022 1.22847e-20)
(1.03612 2.68674 -1.55669e-20)
(0.966122 2.41149 -9.20001e-19)
(0.916869 2.19353 1.04791e-18)
(0.850553 2.37669 2.44087e-19)
(0.847916 2.49761 0)
(0.917799 2.49375 0)
(0.928215 2.37479 0)
(0.907115 2.36181 -9.49074e-19)
(0.689138 2.46502 -4.02696e-19)
(0.80149 2.45514 -9.91439e-20)
(0.812136 2.42888 7.553e-20)
(0.695213 2.39269 0)
(0.800101 2.38871 0)
(0.758679 2.40104 -3.71077e-19)
(0.769291 2.48738 0)
(0.618737 1.0994 0)
(0.486395 0.925178 -5.09958e-19)
(0.558176 0.960175 -3.24273e-20)
(0.523607 1.05534 0)
(0.524639 1.00409 7.65566e-19)
(0.783976 0.880632 -1.36605e-19)
(0.791003 1.01794 0)
(0.765547 0.979062 1.98471e-19)
(0.651578 1.03599 0)
(0.656255 0.942754 0)
(1.16555 2.76093 -2.3621e-19)
(1.14333 2.82429 -1.00421e-19)
(0.932812 2.34364 1.05215e-19)
(0.900377 2.32224 -8.49369e-20)
(1.13054 2.73438 0)
(1.08387 2.70447 1.02247e-19)
(1.09054 2.48745 -3.21571e-19)
(0.984783 2.23673 -3.06972e-20)
(0.497634 1.35203 0)
(0.511795 1.07612 -1.25456e-19)
(0.567059 1.16846 0)
(0.857812 0.228723 0)
(0.78378 0.183197 0)
(0.723696 0.143827 0)
(0.852864 0.233514 -6.58834e-19)
(0.75629 0.219517 3.85904e-19)
(0.929672 0.0752352 -4.18953e-19)
(0.945288 0.121435 0)
(0.924843 0.135154 1.79629e-19)
(0.86347 0.110185 7.21131e-19)
(0.832177 0.0676972 -4.51206e-19)
(1.16146 3.35865 -7.18763e-19)
(1.20955 3.27795 0)
(1.15959 3.38685 -1.48252e-18)
(0.647248 3.54766 1.25934e-18)
(0.871614 3.11514 6.75549e-20)
(0.520462 0.842894 6.11228e-19)
(0.434108 0.839482 0)
(0.332926 0.468602 -1.54477e-19)
(0.45651 0.674133 8.76993e-19)
(0.539353 0.436141 -2.10737e-19)
(0.510765 0.49775 2.42025e-19)
(0.664727 0.522367 5.21979e-19)
(0.695684 0.547215 0)
(0.649033 0.602961 0)
(0.605968 0.544044 0)
(0.995007 0.601305 1.01167e-19)
(0.910029 0.537361 -5.45568e-19)
(0.936285 0.571593 4.14771e-19)
(0.969618 0.508154 -4.21514e-19)
(1.07503 0.480816 0)
(1.08174 0.570425 -1.05209e-19)
(0.847826 0.389594 -8.73188e-19)
(0.850582 0.378435 -1.07897e-18)
(0.794929 0.379277 6.81012e-19)
(0.793502 0.350498 -6.96343e-19)
(0.842645 0.31205 -5.44405e-19)
(0.793415 0.310012 6.68155e-19)
(1.02669 0.00572054 -5.06e-19)
(1.02641 0.00594544 1.03058e-18)
(1.02933 -0.000107622 6.41221e-19)
(1.03342 0.000779202 -7.72277e-19)
(1.03356 0.00867864 0)
(1.03006 0.00930616 -1.25626e-18)
(0.0640299 1.64462 2.70422e-20)
(0.0457724 1.57656 0)
(0.0851306 1.69519 1.66395e-19)
(0.0951482 1.67701 -1.47499e-19)
(0.0872587 1.52948 4.83479e-20)
(0.0864993 1.51355 0)
(0.0160351 1.67382 0)
(0.00371327 1.47776 -6.40013e-22)
(0.00614206 1.42159 5.7563e-22)
(-0.00053222 1.53777 5.48017e-21)
(0.00424996 1.88014 -1.13792e-21)
(-0.00610507 1.93224 4.26925e-21)
(0.497065 1.37086 -2.83948e-19)
(0.490287 1.37428 3.11516e-19)
(0.445344 1.29435 -4.2234e-20)
(0.434911 1.29231 8.41649e-21)
(0.627554 1.2997 0)
(0.544457 1.38784 8.9691e-20)
(0.559968 1.39579 -8.73186e-20)
(0.456164 1.28031 4.10612e-20)
(0.511559 1.23532 0)
(0.564111 1.20243 0)
(0.655731 2.42394 5.91693e-19)
(0.670063 2.46159 1.28376e-18)
(0.715942 2.4733 -8.84358e-19)
(0.614413 2.44833 -2.07346e-19)
(0.560459 2.54057 2.88801e-19)
(0.509584 2.51384 -7.69712e-19)
(0.976969 2.38095 -5.86454e-19)
(1.01311 2.39435 0)
(0.923521 2.17167 -6.79105e-19)
(1.05407 2.68382 0)
(1.05632 2.67061 0)
(0.610994 2.27108 -1.20345e-19)
(1.04243 3.16168 1.32857e-19)
(0.913428 3.03165 -3.64364e-20)
(0.279014 0.899601 0)
(0.316221 0.756513 -3.22627e-19)
(0.478719 0.71396 -3.24927e-19)
(0.388055 2.01745 0)
(0.46665 2.78411 -4.7027e-20)
(0.422359 2.54778 0)
(0.698088 0.674494 -8.65838e-19)
(0.781562 0.677144 1.17783e-18)
(0.80161 0.619727 -1.16577e-18)
(0.67732 0.636806 -1.11961e-19)
(0.732914 0.589861 -4.63194e-19)
(1.00503 2.76415 -1.01027e-19)
(1.04297 2.82157 -1.68168e-19)
(0.639515 2.14497 6.75323e-19)
(0.596353 1.71227 -4.81146e-19)
(0.700273 1.90571 -4.09399e-19)
(0.990928 2.44769 -1.14192e-19)
(0.996057 2.44073 3.01354e-19)
(0.660412 1.84314 2.83785e-20)
(0.45245 1.3333 1.46921e-19)
)
;

boundaryField
{
    wall-4
    {
        type            noSlip;
    }
    velocity-inlet-5
    {
        type            fixedValue;
        value           uniform (1 0 0);
    }
    velocity-inlet-6
    {
        type            fixedValue;
        value           uniform (0 3 0);
    }
    pressure-outlet-7
    {
        type            zeroGradient;
    }
    wall-8
    {
        type            noSlip;
    }
    frontAndBackPlanes
    {
        type            empty;
    }
}


// ************************************************************************* //
