/*--------------------------------*- C++ -*----------------------------------*\
| =========                 |                                                 |
| \\      /  F ield         | OpenFOAM: The Open Source CFD Toolbox           |
|  \\    /   O peration     | Version:  4.0                                   |
|   \\  /    A nd           | Web:      www.OpenFOAM.org                      |
|    \\/     M anipulation  |                                                 |
\*---------------------------------------------------------------------------*/
FoamFile
{
    version     2.0;
    format      ascii;
    class       volScalarField;
    location    "64";
    object      p;
}
// * * * * * * * * * * * * * * * * * * * * * * * * * * * * * * * * * * * * * //

dimensions      [0 2 -2 0 0 0 0];

internalField   nonuniform List<scalar> 
918
(
0.55725
1.18497
0.00125248
0.556692
-0.0125556
1.152
-0.508933
0.667396
0.537447
-0.11053
-0.0470208
0.53881
1.01256
0.778344
-1.12376
-0.00997847
0.651947
-0.38115
0.536554
-0.0569565
0.695011
0.543989
0.547014
0.537592
0.598729
0.75412
0.893529
0.0224735
0.00911507
0.00466763
-0.0118762
-0.0389569
-0.0330138
1.03565
1.08673
1.10942
0.505215
0.333209
-0.374419
-0.447019
-0.435178
-0.54441
0.663942
0.662247
-0.209005
0.670874
0.673621
0.524476
0.536816
0.537728
0.53875
0.537733
0.539114
0.404399
-0.110706
-0.142033
-0.0919815
-0.0844657
0.0538158
-0.0486167
-0.0506235
-0.0455214
-0.0453403
0.454361
0.533194
0.529755
0.543524
0.554039
1.12452
1.09644
1.12259
1.03623
1.05275
0.990553
0.963252
0.799169
0.821069
0.763836
0.752184
-1.55566
-2.50735
-0.53376
-0.282934
-0.0105997
-0.00747847
-0.00172511
0.648773
0.649906
0.651436
0.654141
1.08049
-0.378481
-0.47901
0.536695
0.535504
0.543829
0.544529
0.540548
0.539639
-0.0484889
-0.0456058
-0.0478867
-0.0536503
-0.0520079
0.683713
0.684259
0.538121
0.535125
0.561375
0.581408
0.571788
0.278271
0.609132
0.625776
0.584891
0.747961
0.740772
0.75004
0.866958
0.830797
0.930745
0.953809
0.0165426
4.35633e-05
-0.0150254
-0.0194772
-0.0182326
0.501045
0.493585
0.520998
0.50865
0.511158
0.249875
0.116437
0.418194
0.44309
-0.293185
-0.359017
-0.428701
-0.458983
-0.566977
0.612023
0.659819
0.657873
-0.219706
-0.14777
-0.280593
-0.0746959
-0.137475
0.514737
0.521754
0.516751
0.532308
0.526773
0.528738
0.541086
0.538157
0.539716
0.466635
0.59032
0.330524
0.295154
-0.243052
-0.156661
-0.243295
-0.0731006
-0.0686838
0.0677566
0.0932674
0.0407234
0.0290415
-0.0625133
-0.0544458
-0.0583816
-0.043755
-0.0444036
0.447119
0.435928
0.467054
0.474617
0.519786
0.521307
0.525983
0.523786
0.914004
0.936261
0.943964
0.917819
-3.49729
-6.2798
0.0418318
0.178263
-0.0067242
-0.00930468
0.00204251
-0.00563727
0.000380369
-0.0018665
-0.00659133
-0.00800969
-0.00300611
-0.00179091
0.642834
0.643979
1.00255
1.0092
0.978363
0.931173
0.524906
0.526978
0.532478
0.52836
-0.0437085
-0.0442852
-0.0429383
0.676889
0.681972
0.679794
0.239858
0.150316
0.329251
0.358327
0.636581
0.625826
0.635216
0.644588
0.681357
0.9612
0.979478
0.977682
0.986158
1.03023
1.04666
1.01198
0.480457
0.490458
0.485395
0.524097
0.521876
0.522774
0.518706
0.519936
0.517952
-0.0340714
-0.414163
0.490481
0.507471
0.492661
0.495229
0.692224
0.770887
0.653978
0.656261
0.655591
-0.00582811
-0.0642649
0.250441
0.216441
0.386719
0.423097
0.402082
0.885195
0.845752
0.895835
0.86903
0.83055
0.855851
-0.36571
-1.86581
-0.984621
0.527914
0.342031
0.429168
0.0108521
-0.00599795
-0.00150529
1.00193
1.07438
0.646151
0.821029
0.823785
0.719265
0.748743
0.804208
0.730859
0.764635
0.79882
0.779199
0.568028
0.503585
0.51954
0.8401
0.895904
0.120422
0.059271
0.0153002
0.111996
0.169245
0.143374
1.03451
0.949776
1.02005
0.534886
0.535606
-0.00477328
-0.018344
0.539848
0.539902
-0.0120242
-0.0011741
0.412385
-0.831545
0.100605
0.528422
0.518332
0.535463
-0.0944957
0.35584
-0.0476382
0.0486982
-0.00744937
0.530867
0.465498
0.424585
0.00126407
-0.0187094
-0.0487352
-0.213198
0.532555
0.530859
0.534931
0.535874
0.536554
-0.0179697
-0.0134564
-0.00994779
-0.0456902
-0.0398923
-0.0510249
0.499377
0.518546
-0.169655
0.535078
0.537212
0.537031
0.530287
0.53592
0.534171
-0.00961267
-0.0149723
-0.0173345
0.220452
0.351887
0.652028
0.739856
0.622912
0.399334
0.164512
0.555454
0.618764
0.524418
0.678344
0.655858
0.668076
0.16618
0.0160022
0.174742
0.116333
0.526282
0.524996
0.516586
0.513548
0.530329
0.528441
0.533002
0.530021
0.532972
0.534354
-0.0505318
-0.0785409
-0.0872323
-0.154932
0.310607
0.571961
0.2543
0.28423
0.142238
-0.0421268
-0.0422212
-0.0463124
-0.0540533
0.00125259
-0.0225934
0.0435779
0.0439816
0.0158765
-0.0100069
-0.00672708
-0.017602
-0.0128149
0.524681
0.524466
0.527709
0.536603
0.475149
0.478933
0.443768
0.464525
0.449792
0.388553
0.423803
0.399048
-0.00467276
0.00402411
-0.00182233
-0.0164404
-0.0132323
-0.0321411
-0.0289177
-0.0247982
-0.0207025
-0.0272928
-0.042934
-0.0449274
-0.171087
-0.286745
0.988956
0.91038
0.137223
0.521701
0.528158
0.524919
0.529841
0.532969
0.533772
0.531482
0.52803
0.518838
0.520321
0.517244
0.518245
-0.101358
-0.242414
-0.0705094
-0.144451
0.144859
0.627492
0.363779
0.299485
0.294679
0.523007
0.916446
0.700247
0.674752
0.681198
-0.342389
0.0467933
-0.278653
0.336202
0.164031
0.651424
0.700982
0.722911
0.670655
0.623565
-0.101653
0.55609
-0.0714291
-0.0195405
0.181683
0.0584493
0.666926
0.642852
0.64862
0.660541
0.676001
0.647527
0.633753
0.629548
0.655327
0.657382
0.485801
0.251233
0.202279
0.163775
0.642301
0.520034
0.572041
0.491565
0.521511
0.524093
0.522734
0.504213
0.511804
0.507322
0.513913
0.517452
0.526045
0.52651
0.521785
0.523918
-0.0575497
-0.0629122
-0.0285232
-0.135847
-0.129272
-0.191302
-0.0613278
0.0765941
0.0376331
0.237786
0.342027
0.0532432
-0.0572505
-0.0300344
0.0124594
0.180775
0.208654
0.0746203
0.162445
0.153257
0.134959
0.237447
0.241053
-0.0266298
-0.0297223
-0.033748
-0.0354652
0.0195549
0.0904195
0.100059
-0.0048464
-0.010978
-0.0401984
-0.0410819
-0.0210208
-0.0270137
-0.0222434
0.00793587
-0.0518746
-0.0190474
-0.0049959
-0.00177348
-0.00369157
-0.00927968
0.518386
0.520708
0.520583
0.526904
0.540851
0.555828
0.520265
0.497375
0.48815
0.491173
0.464001
0.474338
0.470023
0.483706
0.504749
0.514266
0.512028
0.514891
0.496922
0.498756
0.485233
0.488905
0.463846
0.444619
0.432724
-0.0414522
-0.00249382
-0.0105866
-0.0368269
-0.00691388
-0.0190763
-0.00954834
0.00952049
-0.0067667
-0.00840696
-0.0187759
-0.0249198
-0.0242933
-0.0729305
0.013686
-0.183715
-0.219559
-0.292392
0.891035
1.01513
0.810674
0.583752
0.603816
0.84691
0.931586
0.543789
0.736115
0.759285
0.586826
0.854452
0.526548
0.526146
0.523745
0.523225
0.524445
-0.00677157
0.0991178
0.0983533
0.160944
0.276617
0.388366
0.318795
0.194212
0.324494
0.326983
0.620779
0.632848
0.588166
0.612071
0.613063
0.42551
0.501052
0.552968
0.512959
0.565309
0.586674
0.54073
0.573472
0.523538
0.478689
0.474686
0.424842
0.444449
0.420265
0.403341
0.515187
0.493268
0.503562
0.494273
0.514212
0.541952
0.538636
0.561998
0.576609
0.498025
0.453025
0.46239
0.492647
0.453804
0.469219
0.485501
0.231916
0.133656
0.21675
-0.068993
0.00278836
-0.00997247
-0.0585193
-0.00780718
0.276552
-0.415019
-0.391345
-1.01895
0.502971
0.953213
0.602479
0.575888
0.675116
0.658433
0.664094
0.680622
0.681999
0.630661
0.640829
0.645548
0.602934
0.624235
0.64296
0.639352
0.525136
0.384518
0.383032
0.331724
0.201915
0.24144
0.438286
0.362138
0.28711
0.287354
0.457313
0.344141
0.413852
0.447756
0.379248
0.333769
0.536319
0.602123
0.595626
0.569062
0.481181
0.49392
0.517971
0.551951
0.576529
0.607048
0.513311
0.519248
0.520479
0.517951
0.515234
0.518308
0.518568
0.521119
0.521746
0.524747
0.5238
-0.0488257
-0.0356326
-0.0492081
-0.0587059
-0.0197519
-0.0219356
0.0232923
0.00780975
-0.013957
-0.00854616
-0.0320527
-0.0366731
-0.0327439
-0.0242305
0.100953
0.113751
0.0976737
0.0579726
0.251569
0.380943
0.455423
0.330726
0.224372
0.24746
0.266932
-0.0115013
0.0137324
0.000766287
0.0404158
0.032651
-0.0351817
-0.0388565
-0.0359397
-0.0289925
-0.019555
-0.0357846
-0.0405495
-0.0313939
-0.0362402
-0.0391909
-0.0430768
0.499636
0.493078
0.494767
0.488562
0.487289
0.501762
0.506054
0.508022
0.513581
0.516036
0.505834
0.511579
0.515663
-0.0100579
-0.0330792
-0.0367805
-0.0268556
-0.0293377
-0.0271406
-0.028568
0.123788
0.0544481
0.0586234
0.0107702
-0.121161
-0.0631563
0.491493
0.490211
0.479683
0.721063
0.570357
0.490881
0.587854
0.693634
0.276275
0.473094
0.308061
0.888702
0.785046
0.931443
0.542611
0.245235
0.408108
0.451668
0.264548
0.33993
0.325611
0.214791
0.24552
0.282831
0.381965
0.265272
0.241868
-0.0013201
0.189058
0.301397
0.283224
0.407973
0.468713
0.266053
0.185628
0.140841
0.60556
0.625088
0.638563
0.611184
0.632269
0.579695
0.571812
0.587719
0.595991
0.589459
-0.747139
-0.453603
-1.40014
-0.721771
-0.267
0.533426
0.504316
0.769453
0.646935
0.68527
0.670476
0.62928
0.598723
0.62178
0.645441
0.342918
0.453712
0.428955
0.434379
0.336708
0.267259
0.564942
0.561585
0.593911
0.617211
0.589917
0.619089
0.511146
0.510873
0.510318
0.506555
0.504822
0.507199
0.0578018
0.0255854
0.0641519
0.0455982
0.0222809
0.00915099
-0.00756757
-0.0175253
-0.0249005
-0.0246761
-0.010611
-0.00659325
0.171446
0.109271
0.0296881
0.058932
-0.00186298
-0.0705282
-0.0893393
0.0156726
0.111881
0.10205
0.405638
0.655412
0.475415
0.642902
0.48535
0.541155
0.468222
0.459622
0.484654
0.37946
0.459946
0.247268
-0.260435
-0.169459
0.79351
0.805049
0.581153
0.404952
0.173265
0.352714
0.54285
0.473511
0.509238
0.578306
0.565937
0.0272235
0.0857807
0.369917
0.596728
0.239694
0.230848
0.224427
0.407686
0.326551
)
;

boundaryField
{
    wall-4
    {
        type            zeroGradient;
    }
    velocity-inlet-5
    {
        type            zeroGradient;
    }
    velocity-inlet-6
    {
        type            zeroGradient;
    }
    pressure-outlet-7
    {
        type            fixedValue;
        value           uniform 0;
    }
    wall-8
    {
        type            zeroGradient;
    }
    frontAndBackPlanes
    {
        type            empty;
    }
}


// ************************************************************************* //
