/*--------------------------------*- C++ -*----------------------------------*\
| =========                 |                                                 |
| \\      /  F ield         | OpenFOAM: The Open Source CFD Toolbox           |
|  \\    /   O peration     | Version:  4.0                                   |
|   \\  /    A nd           | Web:      www.OpenFOAM.org                      |
|    \\/     M anipulation  |                                                 |
\*---------------------------------------------------------------------------*/
FoamFile
{
    version     2.0;
    format      ascii;
    class       volVectorField;
    location    "64";
    object      U;
}
// * * * * * * * * * * * * * * * * * * * * * * * * * * * * * * * * * * * * * //

dimensions      [0 1 -1 0 0 0 0];

internalField   nonuniform List<vector> 
918
(
(0.985161 -0.000506894 0)
(0.00501566 2.96625 0)
(0.00849258 0.889209 0)
(0.979704 0.00214594 0)
(-0.0119916 2.06117 3.76745e-20)
(-0.00704761 2.9488 -2.46593e-18)
(0.819107 1.1622 4.47823e-19)
(0.128613 0.0747495 -1.48517e-20)
(0.999909 -0.000277228 0)
(0.0639951 0.730809 0)
(0.0135813 0.51827 0)
(0.734507 -0.0108301 0)
(0.0110924 2.93041 0)
(0.00257846 2.79508 0)
(-0.0178391 3.14972 7.79944e-19)
(-0.0219495 1.91298 8.21075e-21)
(0.280832 0.0472375 1.01844e-18)
(0.188789 1.14059 3.16497e-19)
(0.962729 0.00501739 0)
(0.00764741 0.487531 0)
(-0.016803 0.0991491 -7.00599e-19)
(1.00197 -0.00497566 0)
(1.00022 -0.00978512 0)
(0.975737 -0.00643893 0)
(0.598666 0.0216443 0)
(0.0150473 2.64123 0)
(-0.014901 2.91001 9.07162e-19)
(0.00978565 0.937653 0)
(-0.0164794 1.18015 0)
(0.0118734 0.920309 0)
(-0.0141779 2.59523 0)
(-0.000958292 2.11549 -3.00881e-20)
(-0.0112596 1.8928 0)
(-0.0206086 2.9876 -8.86274e-23)
(-0.0166859 3.00529 1.91645e-18)
(0.00209808 3.00018 0)
(0.871339 -0.00965065 0)
(0.402849 0.933524 1.80164e-19)
(0.803769 1.17668 -5.10677e-19)
(0.955654 1.02142 5.55006e-19)
(0.672737 1.26847 -1.03794e-19)
(0.673758 1.243 5.97787e-19)
(0.167536 0.129395 1.44892e-20)
(0.149885 0.0553749 0)
(1.15785 0.561915 0)
(0.142573 0.112083 6.60076e-20)
(0.104953 0.0671941 -6.84918e-20)
(0.919898 -0.00745645 0)
(1.00027 0.000160953 0)
(0.999909 0.000338471 0)
(1.00363 -0.0077603 0)
(1.00096 -0.000919387 0)
(1.00017 3.6411e-05 0)
(0.0733112 1.82616 -7.73012e-19)
(0.0304303 0.945272 0)
(0.0993978 0.809515 0)
(0.0099765 0.89777 0)
(0.0370872 0.654504 0)
(0.00627237 2.01298 0)
(-0.00221865 0.810552 0)
(0.0120135 0.531362 0)
(-0.00245565 0.800758 0)
(0.00710769 0.510102 0)
(0.841551 -0.0157055 0)
(0.839215 0.0324509 0)
(0.765573 -0.00866948 0)
(0.803074 0.0339908 0)
(0.701728 0.00325399 0)
(0.014684 3.00041 9.1403e-19)
(0.0114887 3.00804 0)
(0.00611048 3.00275 0)
(0.0135313 2.99735 1.03683e-23)
(0.00796909 2.95849 -1.35847e-18)
(0.0144986 2.98206 0)
(0.010869 2.90357 0)
(0.0243565 2.93096 2.07785e-24)
(0.00470046 2.82492 0)
(0.0301076 2.91651 0)
(-0.00483669 2.74512 0)
(0.305273 3.54278 0)
(-0.131634 3.62346 0)
(0.137834 3.23981 -7.25811e-19)
(-0.0135376 2.97799 0)
(-0.0256327 1.98681 0)
(-0.0071343 2.16782 -8.09822e-21)
(-0.0159264 1.92121 2.15768e-21)
(0.350612 0.144183 -3.53647e-19)
(0.310296 0.0272789 -3.43535e-19)
(0.307004 0.150377 -1.05866e-18)
(0.243886 0.0552495 -6.8886e-19)
(0.229093 0.982732 0)
(0.272252 1.29172 -3.67464e-19)
(0.365687 1.22663 6.12918e-19)
(0.987438 0.00857096 0)
(0.941863 0.00582766 0)
(1.0003 0.000580747 0)
(1.00286 0.00930912 0)
(1.00301 0.00847077 -2.74536e-18)
(0.991908 0.00969586 2.0732e-18)
(-0.00919772 0.790762 0)
(0.00783117 0.497211 0)
(-0.0436942 1.0063 0)
(-0.023143 0.832412 0)
(0.00649725 0.487935 0)
(-0.0163497 0.114493 2.16262e-19)
(0.0716985 0.0813126 0)
(0.993552 -0.00837126 0)
(0.954463 -0.00653076 0)
(0.744367 0.0315985 0)
(0.680116 0.0276523 0)
(0.663689 0.0110591 0)
(0.97057 -0.00741933 0)
(0.595462 0.0685328 0)
(0.449375 -0.00996197 1.5434e-18)
(-0.0374177 2.86161 6.69499e-19)
(0.0412423 2.90967 0)
(0.0534583 2.88625 0)
(-0.00440719 2.70036 0)
(-0.0132137 2.98527 8.58499e-19)
(-0.0178149 2.89509 0)
(-0.0153546 2.98808 -2.66281e-18)
(-0.0133264 2.92519 9.11575e-19)
(-0.0264901 1.34434 0)
(-0.00264452 1.37329 0)
(-0.00739527 2.1328 4.83299e-22)
(-0.0063036 2.09453 0)
(-0.0239698 1.90037 0)
(0.938587 -0.007397 0)
(0.857474 -0.00997089 0)
(0.863267 0.00566886 0)
(0.94959 -0.00781984 0)
(0.884052 -0.00818961 0)
(0.514336 1.12652 -2.2751e-19)
(0.563506 1.1776 0)
(0.367443 0.878461 3.36263e-20)
(0.310059 0.737135 0)
(0.916129 1.05938 -1.52992e-19)
(1.03376 0.868365 3.10602e-19)
(0.358574 1.35338 0)
(0.525366 1.32454 0)
(0.548338 1.26313 0)
(0.120862 0.184734 -3.02283e-19)
(0.190482 0.130244 0)
(0.182372 0.0742998 1.91722e-19)
(1.00479 0.923056 0)
(1.07851 0.776969 0)
(1.1036 0.718445 -2.46359e-19)
(1.13727 0.621412 0)
(1.188 0.405441 5.71051e-20)
(0.957755 -0.00870497 0)
(0.962511 -0.0100358 0)
(0.90175 -0.00798339 0)
(0.984203 -0.0091469 0)
(0.97471 -0.00933355 0)
(0.937135 -0.00637261 0)
(1.00019 0.00233966 0)
(1.0009 0.00141467 0)
(0.999909 0.000854826 0)
(0.0355097 2.07365 4.28414e-19)
(0.118898 1.76902 0)
(0.0179825 2.18767 6.58451e-19)
(0.0461723 1.88019 -5.49099e-19)
(0.106196 1.1468 -2.59193e-19)
(0.0490032 1.02583 0)
(0.143221 0.976046 0)
(0.00199031 0.85621 0)
(0.0153343 0.598992 0)
(-0.00126259 2.2422 -8.33135e-22)
(0.0156505 2.01773 0)
(-0.00211182 2.24438 -3.03874e-20)
(0.00757381 2.02193 4.76443e-20)
(-0.000750367 0.832884 0)
(-0.00219338 0.8198 0)
(0.00902046 0.559461 0)
(-0.00444395 0.79342 0)
(0.00497504 0.500094 0)
(0.93835 0.00976539 0)
(0.85006 -0.0146485 0)
(0.927547 0.000409767 0)
(0.842494 -0.0128999 0)
(0.812263 -0.00216675 0)
(0.898696 0.0225131 0)
(0.872302 0.0282555 0)
(0.788551 -0.00615568 0)
(0.00572343 3.06488 -8.51887e-21)
(0.0167384 3.05774 0)
(0.0147186 2.96902 0)
(0.00869257 2.87617 0)
(0.920956 3.95543 0)
(1.23441 3.28894 9.26891e-19)
(0.0692171 3.07021 0)
(-0.0290153 2.90279 0)
(-0.00836609 1.3946 0)
(-0.0306289 1.69489 0)
(-0.0173372 1.52915 0)
(-0.0301564 2.5533 -7.98027e-21)
(-0.0138454 2.24399 0)
(-0.0198614 2.39185 0)
(-0.00183159 1.94816 8.82001e-22)
(-0.00362128 2.23997 -6.29268e-21)
(-0.0054746 2.20285 -2.357e-21)
(-0.00972529 1.93347 0)
(0.402604 0.125017 5.39794e-19)
(0.358601 0.0163497 -5.29679e-19)
(0.258932 1.58513 0)
(0.277317 0.755758 -3.15841e-19)
(0.177111 1.67242 -1.04911e-18)
(0.226037 1.21961 1.05142e-18)
(0.902015 0.00636719 0)
(0.967395 0.0111314 0)
(0.974543 0.0108121 0)
(0.9233 0.00641296 0)
(-0.00973784 0.790807 0)
(-0.0083932 0.788219 0)
(0.0058032 0.491636 0)
(0.128569 0.0992453 6.11428e-19)
(0.113102 0.0887872 -7.22723e-19)
(0.0875128 0.0671398 0)
(1.09841 0.0860719 2.7119e-20)
(1.0805 0.0393835 0)
(1.01282 0.0399277 0)
(0.907 -0.00556573 0)
(0.454125 0.105796 0)
(0.514195 0.0875244 -2.46545e-18)
(0.40444 0.0111333 9.21358e-19)
(0.00875866 2.98101 7.18838e-19)
(-0.032484 2.86557 4.70959e-20)
(0.00359866 3.05023 -1.80365e-20)
(0.0202336 3.04336 6.41664e-19)
(-0.0150204 2.99658 2.99372e-20)
(-0.0129328 2.94948 -1.2049e-22)
(-0.017249 3.01193 -5.5423e-19)
(0.0148463 3.02383 4.00981e-19)
(0.00736361 3.03678 -6.34885e-19)
(0.933979 -0.00120951 0)
(0.939458 -0.00320138 0)
(0.845961 -0.00946359 0)
(0.956523 0.011918 0)
(0.942642 0.0132588 0)
(0.881573 0.00584733 0)
(0.916552 0.0176912 0)
(0.925778 0.0151231 0)
(0.838524 0.00205475 0)
(0.716825 1.40381 4.03047e-20)
(0.750152 1.51252 0)
(0.181558 0.315488 7.05941e-20)
(0.228296 0.66869 5.68354e-19)
(0.262319 0.720546 -3.32085e-19)
(0.263156 0.521698 6.60729e-19)
(0.345861 0.810576 1.59098e-18)
(0.14033 0.229913 3.75691e-19)
(0.264457 0.152747 7.29291e-19)
(0.224953 0.147213 1.89059e-19)
(0.212475 0.0662308 3.58372e-19)
(1.17707 0.463494 6.21403e-20)
(1.19285 0.256594 5.74607e-20)
(0.0101076 2.23634 2.53598e-19)
(0.0403818 1.94818 0)
(0.970447 0.0293037 0)
(0.943204 0.0138822 0)
(0.868873 -0.0179392 0)
(0.0111934 3.07413 0)
(0.0195997 2.94407 1.17421e-18)
(0.0164279 2.95623 0)
(0.00645441 2.85059 -1.16464e-18)
(0.00637571 3.09117 2.84847e-19)
(0.00723489 3.08272 0)
(0.782987 1.81408 -1.58995e-19)
(1.24229 2.48976 4.04154e-19)
(0.764983 1.95342 -1.23008e-18)
(0.0196462 2.98033 -6.19612e-19)
(0.0353182 2.99942 0)
(-0.0344265 2.87663 0)
(-0.00425947 2.22348 -1.31409e-20)
(-0.00323644 2.2445 8.81221e-21)
(0.000847257 1.98347 -7.26618e-21)
(0.278198 1.39425 1.0253e-18)
(0.238454 0.549918 -7.0303e-19)
(0.0637879 1.99825 7.63146e-19)
(0.135359 1.88443 -9.10897e-19)
(0.180276 1.51146 9.50031e-20)
(0.0029874 3.11816 -1.77603e-18)
(0.0169688 3.11795 1.90313e-18)
(-0.00918252 2.98086 7.89009e-19)
(-0.00338519 2.97726 -7.45653e-19)
(-0.021227 2.88127 -8.03583e-19)
(0.00864717 3.09899 -2.11704e-18)
(0.00200576 3.10681 2.06568e-18)
(0.281864 0.694953 0)
(0.248297 0.684071 -1.18112e-18)
(0.0958925 0.225189 5.24404e-19)
(0.357556 0.937557 1.11286e-18)
(0.195436 0.275859 -1.71576e-18)
(1.18474 0.174768 6.32456e-20)
(1.19327 0.311178 0)
(1.17309 0.12254 -6.78862e-21)
(0.00126527 2.2544 -1.47845e-21)
(0.00473329 2.24594 0)
(0.0245696 1.98351 0)
(0.340099 1.30306 -3.6816e-19)
(0.374612 1.14948 -8.00198e-19)
(0.210053 0.377711 1.42665e-18)
(1.00588 -0.0108314 0)
(1.00767 -0.00763531 5.06465e-19)
(-0.0219943 1.32484 0)
(-0.038025 1.32292 0)
(1.00221 0.0035128 1.81081e-21)
(1.00366 0.00946735 1.03408e-18)
(-0.0184228 2.53777 1.01119e-20)
(-0.0238726 2.58045 0)
(0.0346648 3.17722 4.09164e-19)
(0.390783 3.48449 0)
(1.17391 0.66248 -5.80399e-20)
(1.01286 0.0131359 -2.1371e-21)
(1.02134 -0.0102938 0)
(1.0017 0.000129136 7.85532e-23)
(0.112481 1.36843 0)
(0.144011 2.56985 0)
(0.024921 1.30796 0)
(-0.000534825 2.62187 2.85199e-20)
(-0.0216764 2.5792 4.18193e-21)
(0.998489 0.0273078 1.59238e-21)
(1.06305 0.0046241 0)
(1.09751 0.0250602 0)
(-0.0291726 1.73772 0)
(-0.0185939 2.58077 0)
(-0.00487844 1.30995 0)
(0.312403 1.481 -1.68107e-19)
(1.0113 -0.00961855 0)
(1.0094 -0.0149164 0)
(1.00237 0.000752047 6.47262e-19)
(1.00547 -0.00480139 -7.60732e-19)
(1.00118 -0.000972328 0)
(-0.0143079 1.46141 0)
(-0.00715525 1.37283 0)
(-0.00774742 1.41887 0)
(-0.00864449 1.29767 0)
(-0.0182658 1.2849 0)
(-0.00952506 1.26723 0)
(1.03502 -0.00605057 0)
(1.01971 0.0155978 -8.23776e-22)
(0.820656 1.27328 2.59429e-19)
(1.00223 0.000319406 -6.4474e-19)
(1.00406 0.00525955 7.54854e-19)
(1.00118 0.0020743 0)
(1.01273 0.0103574 6.41675e-19)
(1.00799 0.00831209 -7.77481e-19)
(1.00856 0.0146957 0)
(-0.0237717 2.60871 0)
(-0.0256485 2.58812 -1.8126e-20)
(-0.0230634 2.60226 1.29086e-20)
(1.23713 0.267378 5.8218e-19)
(1.16207 0.0869008 0)
(0.0413378 3.07816 -9.14611e-19)
(0.064875 2.85662 -6.65658e-20)
(0.138786 3.19265 1.39497e-18)
(0.134311 3.22024 -1.98162e-19)
(0.133324 3.23121 0)
(0.0195215 3.13726 2.36115e-19)
(0.0747222 3.16039 9.02117e-19)
(0.0677374 3.18534 -4.45098e-19)
(0.0220101 3.13008 0)
(0.591209 0.281171 0)
(0.520918 0.301577 0)
(1.14504 0.698531 1.32676e-19)
(1.13908 0.819936 -1.17296e-19)
(1.20176 0.585338 0)
(1.2296 0.519998 0)
(1.01605 0.0133718 -1.19609e-18)
(1.01498 0.0142789 1.50146e-18)
(1.02537 -0.00981121 0)
(1.02344 -0.0118548 0)
(1.00642 0.00262877 0)
(1.01041 0.00373998 0)
(1.00458 0.00186413 0)
(1.00979 0.00624762 0)
(1.00781 0.00596523 0)
(1.00451 0.00471581 0)
(0.101418 1.36671 0)
(0.0967902 1.33005 0)
(0.132975 1.40456 0)
(0.150944 1.40912 0)
(0.145686 2.59482 0)
(0.185422 2.66482 -4.23783e-19)
(0.101608 2.65028 0)
(0.0853268 2.65319 1.98183e-19)
(0.0386646 2.67615 -1.4889e-19)
(0.0154133 1.32042 0)
(0.0214151 1.2443 0)
(0.0176835 1.3298 0)
(0.0340714 1.26772 0)
(0.00372431 1.98429 2.85321e-21)
(-0.020443 2.60692 -1.80841e-20)
(-0.0086284 2.66322 1.41657e-20)
(-0.0185893 2.68228 0)
(-0.0233131 2.6128 -6.12173e-21)
(-0.0234726 2.60769 1.22367e-20)
(0.0125814 1.98276 6.93796e-22)
(-0.00722973 2.39499 2.42625e-20)
(-0.0133126 2.417 -1.60657e-20)
(1.00956 0.03891 1.21185e-18)
(1.00536 0.0172617 -1.51032e-18)
(1.00406 0.0450759 -1.23429e-18)
(0.976889 0.0352656 1.55295e-18)
(1.06428 0.00844006 0)
(1.0494 -0.00825182 0)
(1.09447 0.0352271 0)
(1.07441 0.0129986 0)
(1.07224 0.000543085 0)
(1.14044 0.0832701 0)
(1.11193 0.0446937 0)
(1.11569 0.0325718 0)
(-0.0255292 2.43056 9.77727e-22)
(-0.0141052 2.0122 0)
(-0.0168754 2.21531 0)
(-0.0204827 2.60145 -1.05043e-20)
(-0.0176974 2.61141 1.76419e-22)
(0.00307097 1.57264 -3.50255e-20)
(-0.00579341 1.50098 3.56811e-20)
(-0.0150205 1.38984 0)
(-0.0186254 1.39646 0)
(-0.0237186 1.39115 0)
(-0.00308327 1.31101 0)
(0.00904119 1.23727 0)
(0.386728 1.49855 2.73253e-19)
(0.429795 1.49949 1.44696e-19)
(0.597582 2.44459 -2.40385e-19)
(0.398502 2.54174 7.07668e-19)
(0.349661 2.05353 7.16677e-20)
(1.02107 -0.00811056 0)
(1.01551 -0.00974605 0)
(1.01492 -0.0155027 0)
(1.00741 -0.00107888 0)
(1.00493 -0.00091024 0)
(1.00778 -0.00469 0)
(1.00927 -0.00361336 0)
(1.01422 -0.00437404 0)
(1.02047 0.0163359 1.17191e-18)
(1.01767 0.0155369 -1.49806e-18)
(1.02074 0.0183637 -1.18084e-18)
(1.01831 0.0162593 1.48054e-18)
(0.784138 1.32461 0)
(0.720672 1.37474 2.45802e-19)
(0.895863 1.22389 9.6878e-20)
(0.941694 1.16885 -1.28903e-19)
(1.15463 2.60006 2.7858e-19)
(0.770236 0.123432 5.99367e-19)
(1.16354 0.109038 0)
(1.21243 0.194526 -4.68463e-19)
(1.19955 0.155365 -1.99323e-20)
(1.00624 0.157019 0)
(0.129854 2.95879 5.31885e-19)
(0.106286 2.86503 -1.15708e-18)
(0.0150234 2.37298 7.74085e-19)
(0.0948033 -0.148676 -3.31553e-19)
(0.335734 3.41457 -2.14754e-19)
(0.19109 3.30922 0)
(0.234607 3.34987 2.79687e-19)
(0.240012 3.03125 -1.77613e-18)
(0.333301 3.18932 0)
(0.00551187 3.12119 4.60534e-20)
(0.015748 3.12981 -5.4345e-19)
(0.0139125 3.12585 7.99841e-19)
(0.0345156 3.14012 0)
(0.0329891 3.15025 0)
(1.21055 2.59771 0)
(0.545255 0.806737 -5.28535e-19)
(1.06536 0.993084 -7.61409e-21)
(0.999857 1.07784 0)
(0.852883 0.973544 -1.10238e-19)
(1.09077 0.89409 2.79498e-20)
(0.315834 0.339368 -8.56646e-19)
(0.660243 0.32381 -1.75579e-20)
(0.565642 0.222694 4.08152e-19)
(0.547549 0.33758 3.00067e-20)
(0.439558 0.279071 -1.20601e-18)
(0.621509 0.325169 0)
(0.706839 0.42206 6.95224e-19)
(0.71031 0.42535 0)
(0.585715 0.339592 0)
(0.517587 0.247889 0)
(0.824713 0.623506 4.1183e-19)
(1.23824 0.28969 -4.90111e-19)
(1.23819 0.428339 0)
(1.24656 0.369014 0)
(0.690019 0.195452 6.20234e-19)
(0.872093 0.552242 -3.77211e-19)
(0.769406 0.52357 6.70901e-19)
(0.962141 0.445027 -7.37933e-19)
(1.01922 0.0149544 8.03225e-19)
(1.01759 0.0143472 -8.08695e-19)
(1.0159 0.0153861 0)
(1.03649 -0.00559205 0)
(1.0299 -0.00837086 -7.57536e-19)
(1.02795 -0.0119589 7.50003e-19)
(1.02486 0.0105061 0)
(1.02337 0.0142571 0)
(1.01141 0.0041578 0)
(1.0142 0.00915028 0)
(1.01515 0.00416694 0)
(1.01426 0.00288951 0)
(0.0686303 1.34987 0)
(0.0730302 1.29612 0)
(0.148938 1.38606 1.06372e-20)
(0.282641 1.47946 8.96708e-20)
(0.177989 1.45043 1.88888e-19)
(0.211035 1.45541 -3.0787e-19)
(0.174613 1.41076 0)
(0.136844 1.59946 -7.22548e-20)
(0.119 1.57828 0)
(0.346199 2.00336 -1.04205e-19)
(0.342222 2.33916 6.15393e-19)
(0.194164 1.46373 6.29856e-20)
(0.26938 1.39618 2.33682e-20)
(0.202768 1.389 -1.88861e-20)
(0.278865 1.33881 -1.03802e-19)
(0.243731 1.57954 0)
(0.267906 1.61666 1.12855e-19)
(0.0309743 2.26039 -2.88101e-20)
(0.0437782 2.66528 0)
(0.0666924 2.39664 1.3501e-19)
(0.0633807 2.41748 0)
(0.0696854 2.6668 -2.19622e-19)
(0.0492191 2.69541 0)
(0.0264504 1.43378 3.15827e-20)
(0.0349309 1.4859 0)
(0.0283251 1.40129 0)
(0.0233137 1.40585 -3.56371e-20)
(0.000311598 2.64946 -1.72195e-20)
(0.0297193 2.69466 1.67146e-19)
(0.0102167 2.71975 1.17894e-21)
(0.00322806 1.8358 -2.3613e-21)
(-0.00227679 1.68921 -3.08984e-21)
(0.0118066 1.30001 0)
(0.0211457 1.22162 0)
(0.0473548 1.59286 -2.62372e-20)
(0.0316584 1.46748 -3.31628e-20)
(0.0368791 1.5317 4.11407e-20)
(0.0409824 1.61676 0)
(-0.0292802 2.26984 9.49473e-20)
(-0.0303176 2.54842 -3.98908e-20)
(-0.0160731 2.44592 3.75963e-21)
(-0.00329002 1.85183 2.86069e-21)
(-0.0253651 2.49796 1.78466e-21)
(-0.0204772 2.44154 1.39641e-21)
(1.01855 0.0212328 -8.04244e-19)
(1.01418 0.0278079 8.04372e-19)
(1.01332 0.0173671 0)
(1.01132 0.0711392 1.12679e-18)
(0.991794 0.0594538 -1.26312e-18)
(0.950475 0.0559172 1.41213e-18)
(1.01414 0.11226 -1.50426e-19)
(1.04292 -0.00558658 0)
(1.05131 -0.00121356 7.22478e-19)
(1.03919 -0.0097649 -7.23954e-19)
(1.07177 0.0428139 -4.29576e-20)
(1.06493 0.0241444 3.70435e-19)
(1.06345 0.0570198 0)
(1.05384 0.05028 -1.33213e-19)
(1.03258 0.0432484 0)
(1.02591 0.039978 0)
(1.02785 0.0136094 0)
(1.02379 0.0162521 0)
(1.04032 0.0329763 2.74402e-19)
(1.03904 0.0278029 -6.06884e-19)
(1.05127 0.0345598 -2.90816e-19)
(1.04841 0.0346377 -3.20343e-19)
(1.07155 0.0652643 6.24929e-19)
(1.09705 0.0529943 0)
(1.106 0.0971076 0)
(-0.0249414 2.27494 5.32054e-20)
(-0.0239982 2.01772 7.31231e-22)
(-0.0200753 2.02517 0)
(-0.0265957 2.44412 -5.29649e-20)
(-0.0215405 2.40019 -1.66315e-21)
(-0.0328973 2.47178 5.20885e-21)
(-0.0207699 2.62037 -1.10886e-20)
(-0.022908 2.56208 5.93133e-24)
(-0.0212548 2.51368 -2.8685e-21)
(-0.0158658 2.61436 9.91079e-21)
(-0.0209124 2.6163 -1.05166e-20)
(-0.00556445 1.49398 -6.01062e-22)
(0.00389996 1.62112 -3.29172e-20)
(0.371897 1.44625 -1.15571e-19)
(0.37164 1.38086 3.69796e-20)
(0.661286 1.42546 -2.37777e-19)
(0.528939 1.49239 -1.42408e-19)
(0.587232 1.45799 0)
(0.593388 2.4216 2.07085e-19)
(0.661743 2.41691 3.37668e-19)
(0.411271 2.5112 8.77974e-20)
(0.402598 2.53568 -6.10211e-19)
(0.51027 2.47691 6.14499e-19)
(0.553281 2.45838 0)
(0.48814 2.51594 -5.59661e-19)
(0.248559 2.58843 1.14446e-18)
(0.35484 2.56043 -7.75196e-20)
(0.284081 2.65012 -1.58753e-18)
(0.948006 2.37477 7.27071e-19)
(0.838211 2.37987 0)
(1.01107 0.000524157 2.62568e-20)
(1.01535 -0.00537498 -2.12992e-20)
(1.01767 -0.00348293 -3.89013e-19)
(1.01503 -0.000844205 3.91109e-19)
(1.01245 0.00125291 0)
(0.647085 1.2904 0)
(0.669819 1.18414 0)
(0.783765 1.10282 0)
(0.662905 1.14762 0)
(1.18472 2.6136 5.97296e-20)
(1.07272 2.36078 0)
(0.83432 2.16604 3.83209e-21)
(0.823753 2.43119 0)
(0.92177 2.5249 -4.22193e-19)
(0.956975 2.48104 2.80849e-19)
(0.798436 0.183489 0)
(0.742543 0.15595 1.62805e-19)
(0.908769 0.152059 9.47668e-19)
(0.824116 0.156133 -3.54381e-19)
(0.779382 0.0912022 -1.09579e-18)
(1.08243 0.240926 -8.9265e-19)
(0.999861 0.303176 -1.74982e-20)
(0.929492 0.306714 8.60442e-19)
(1.00798 0.233669 7.21562e-19)
(0.948562 0.198401 -1.2541e-18)
(0.911483 0.202776 1.56835e-19)
(0.95004 0.268909 -3.3273e-19)
(0.927185 0.230021 0)
(0.995852 0.194631 6.18456e-19)
(1.04752 0.194023 0)
(1.04501 0.222195 0)
(1.10743 0.121217 2.89959e-19)
(1.07176 0.18092 -1.49956e-20)
(1.07596 0.241041 -1.57835e-19)
(1.10189 0.207127 0)
(1.02345 0.0464316 6.1696e-19)
(1.03916 0.0602435 7.71827e-19)
(1.03468 0.0463844 -6.12327e-19)
(1.04313 0.0678961 -5.17513e-19)
(1.02077 0.0758114 -7.93745e-19)
(0.98603 0.160636 0)
(0.991348 0.106234 0)
(0.965015 0.0734334 -5.01829e-19)
(0.905455 0.0980074 1.99299e-19)
(1.03986 0.107782 7.16232e-19)
(1.06974 0.124806 -8.36334e-19)
(1.07635 0.157228 7.46828e-19)
(1.03095 0.150468 0)
(1.07538 0.112336 0)
(1.05465 0.0933785 -3.42823e-19)
(1.04333 0.0975704 -5.84994e-19)
(0.578793 1.05659 1.39707e-19)
(0.604834 1.38247 -4.11979e-20)
(1.15456 2.72944 -2.27183e-19)
(1.22031 3.07172 1.92052e-21)
(1.24638 2.71247 -1.23682e-19)
(1.27498 2.69578 -3.19352e-20)
(1.20244 2.33606 -1.10432e-20)
(1.20795 2.9756 -9.33443e-20)
(1.22802 2.94108 2.34201e-19)
(1.21056 3.22462 -1.42977e-19)
(1.37028 2.95556 1.97578e-19)
(1.35913 2.87365 0)
(0.562054 0.815457 -5.02886e-20)
(0.111763 1.22809 5.69174e-19)
(0.555581 0.364375 5.59489e-19)
(0.393677 0.112016 6.08716e-19)
(0.482515 0.319351 6.83264e-19)
(0.544383 0.436662 -1.10306e-18)
(0.546569 0.43324 9.0298e-19)
(0.468414 0.322126 -3.42929e-19)
(0.349959 0.250678 7.76924e-19)
(0.713452 0.268336 -3.58074e-19)
(0.673316 0.292428 0)
(0.617239 0.208097 6.92026e-21)
(0.741707 0.506259 3.66063e-19)
(0.718391 0.477009 -1.33188e-18)
(0.622137 0.44659 1.16225e-20)
(0.620653 0.43709 0)
(0.691617 0.718272 3.97209e-19)
(0.853188 0.778275 3.95854e-19)
(0.776894 0.861078 -4.63175e-19)
(0.899168 0.815773 -1.549e-19)
(0.930315 0.861058 -3.74743e-20)
(0.937411 0.860812 3.83766e-20)
(0.865756 0.658241 -6.81718e-19)
(0.945818 0.712102 1.43842e-19)
(1.00525 0.727515 0)
(0.996241 0.704169 -1.94389e-19)
(1.02951 0.343471 2.12516e-19)
(1.14913 0.305776 2.88376e-19)
(1.07026 0.2782 3.64852e-19)
(1.01841 0.375839 -4.3126e-19)
(1.06697 0.438395 0)
(1.12286 0.420787 0)
(0.923833 0.379556 1.74456e-21)
(0.840884 0.31547 0)
(0.885154 0.311125 4.06782e-19)
(0.910851 0.315212 -7.82626e-21)
(0.956221 0.448313 2.05564e-18)
(0.916989 0.503689 5.29344e-19)
(0.922133 0.470618 -5.63972e-19)
(0.838664 0.456654 6.04787e-19)
(0.822571 0.449232 3.62396e-19)
(0.793288 0.431973 -3.56515e-19)
(1.0274 -0.000214064 6.48034e-19)
(1.02 8.44937e-05 0)
(1.01853 0.00101141 4.22559e-19)
(1.02174 -0.00152902 -9.57204e-19)
(1.02236 0.00450791 4.6502e-19)
(1.02031 0.011531 -9.73782e-19)
(1.02121 0.010895 0)
(1.02045 0.0111074 -2.02959e-19)
(1.01594 0.00784956 5.09179e-19)
(1.0166 0.0106341 -2.5407e-19)
(1.0173 0.00998451 1.87105e-19)
(0.02789 1.32316 0)
(0.0344448 1.37578 0)
(0.0452174 1.32509 0)
(0.0493264 1.27322 0)
(0.0743769 1.39913 -5.07117e-20)
(0.0813982 1.36631 2.24608e-20)
(0.118782 1.54341 -1.31648e-20)
(0.103062 1.38913 -6.57544e-21)
(0.0369466 1.47329 1.6867e-20)
(0.0410708 1.46714 -1.29129e-20)
(0.065485 1.38474 -9.79626e-21)
(0.0570813 1.38601 4.56481e-20)
(0.0487987 1.36107 6.7543e-21)
(0.0403238 1.38301 3.55021e-21)
(0.107841 2.3652 -1.49057e-19)
(0.0968543 2.41336 0)
(0.171147 2.03954 1.08152e-19)
(0.114315 1.70644 3.91282e-20)
(0.234308 2.03506 -8.99532e-20)
(0.200831 2.42628 0)
(0.26292 2.37621 -6.06404e-19)
(0.303016 2.37387 4.28576e-19)
(0.230078 1.99531 -2.49685e-19)
(0.155886 2.15452 1.70046e-19)
(0.14208 2.26182 0)
(0.018977 1.87908 5.13175e-21)
(0.00018865 2.39039 -3.41152e-20)
(0.00664398 2.14828 0)
(0.0116021 2.45345 -1.364e-20)
(0.0286043 2.29674 9.04438e-21)
(0.0149674 1.41351 -6.7202e-21)
(0.0131463 1.3964 1.13026e-19)
(0.0131569 1.40234 -3.70868e-20)
(0.0207267 1.40595 -3.1763e-20)
(0.0249838 1.43748 0)
(0.00940451 1.38385 0)
(0.0020475 1.29646 -4.51395e-20)
(0.0055355 1.37567 1.27289e-20)
(0.00909019 1.37578 0)
(0.00821189 1.28883 -3.40658e-20)
(0.0182394 1.21325 6.90445e-20)
(1.04081 0.0121081 0)
(1.04701 0.00833792 -6.77826e-20)
(1.0387 0.0222538 -4.89318e-19)
(1.04853 0.0210886 0)
(1.05248 0.0209556 0)
(1.03635 0.0123043 -6.85357e-21)
(1.03098 0.0121237 7.86466e-19)
(1.03164 0.0171252 9.53462e-19)
(1.02543 0.0210118 0)
(1.02214 0.0213787 0)
(1.03521 0.025993 4.87931e-19)
(1.02544 0.0278265 0)
(1.02352 0.0278942 0)
(-0.0182334 2.02261 0)
(0.00104867 1.6518 -4.33794e-21)
(-0.00463905 1.7595 -3.01402e-20)
(-0.000726582 1.38491 0)
(-0.00668906 1.55249 -1.78236e-20)
(-0.00857273 1.46203 1.1286e-20)
(-0.00506697 1.39822 0)
(0.388822 1.64454 0)
(0.37427 1.30741 -7.23593e-20)
(0.301224 1.34105 0)
(0.426239 1.30576 7.61925e-21)
(0.476534 1.46971 0)
(0.456912 1.41418 2.46886e-20)
(1.03644 2.67569 -1.53716e-20)
(0.968441 2.40355 -9.13809e-19)
(0.921512 2.19173 1.02522e-18)
(0.85222 2.37179 2.42148e-19)
(0.847834 2.48526 0)
(0.917576 2.48148 0)
(0.931356 2.36829 0)
(0.910304 2.35742 -9.44728e-19)
(0.686994 2.44925 -3.94824e-19)
(0.800083 2.43877 -9.77795e-20)
(0.810389 2.41293 7.42977e-20)
(0.695627 2.39006 0)
(0.800826 2.38533 0)
(0.759015 2.39874 -3.68833e-19)
(0.76768 2.475 0)
(0.629341 1.09357 0)
(0.480604 0.90202 -5.11375e-19)
(0.566133 0.945455 -3.23714e-20)
(0.519127 1.03525 0)
(0.51958 0.978918 7.65967e-19)
(0.797712 0.883972 -1.30281e-19)
(0.807265 1.02041 0)
(0.782312 0.986845 1.86257e-19)
(0.666077 1.03394 0)
(0.667448 0.935877 0)
(1.16356 2.75244 -2.29925e-19)
(1.141 2.81579 -9.71536e-20)
(0.929109 2.33035 1.00435e-19)
(0.896919 2.30967 -8.33295e-20)
(1.12912 2.72541 0)
(1.08292 2.69488 1.00255e-19)
(1.08907 2.47876 -3.13915e-19)
(0.983536 2.2316 -3.03896e-20)
(0.492284 1.33146 0)
(0.507901 1.0613 -1.23141e-19)
(0.575553 1.16725 0)
(0.854146 0.248276 0)
(0.762031 0.197782 0)
(0.675503 0.155576 0)
(0.845212 0.250356 -6.40283e-19)
(0.735028 0.241115 3.73589e-19)
(0.922594 0.0890165 -4.10945e-19)
(0.927843 0.131548 0)
(0.914396 0.140856 1.77626e-19)
(0.851001 0.118023 7.10609e-19)
(0.816104 0.0790438 -4.45006e-19)
(1.15601 3.34961 -7.18351e-19)
(1.20491 3.26909 0)
(1.15369 3.37853 -1.48808e-18)
(0.641827 3.54002 1.26265e-18)
(0.863717 3.10861 7.18906e-20)
(0.521592 0.803815 6.0513e-19)
(0.424567 0.800935 0)
(0.309921 0.39402 -1.49174e-19)
(0.47076 0.652486 8.57779e-19)
(0.558689 0.367366 -1.96837e-19)
(0.514654 0.468072 2.31636e-19)
(0.673756 0.512109 4.94327e-19)
(0.711848 0.549655 0)
(0.662127 0.57745 0)
(0.626219 0.52759 0)
(1.00698 0.614009 8.91786e-20)
(0.921879 0.553154 -5.1534e-19)
(0.947205 0.584966 3.88567e-19)
(0.97807 0.524828 -3.98763e-19)
(1.08553 0.494086 0)
(1.094 0.584764 -9.73019e-20)
(0.858791 0.409739 -8.30989e-19)
(0.858096 0.398863 -1.03117e-18)
(0.793856 0.393509 6.45964e-19)
(0.805246 0.371771 -6.56034e-19)
(0.846168 0.334086 -5.19822e-19)
(0.794207 0.33641 6.36106e-19)
(1.02667 0.00608507 -4.93822e-19)
(1.02637 0.00630628 1.00391e-18)
(1.02945 0.000239459 6.27986e-19)
(1.03368 0.00115302 -7.56281e-19)
(1.0338 0.00930948 0)
(1.03004 0.0100085 -1.23156e-18)
(0.0641454 1.64338 1.94565e-20)
(0.0504867 1.59037 0)
(0.0900319 1.69294 1.19536e-19)
(0.0989526 1.67441 -1.05109e-19)
(0.0930245 1.54948 2.46636e-20)
(0.0930049 1.54758 0)
(0.011307 1.68516 0)
(-0.00394242 1.49248 6.93193e-21)
(-0.00195435 1.43837 -6.23608e-21)
(-0.00735165 1.54926 5.39752e-21)
(0.00177371 1.88383 1.03487e-20)
(-0.0100615 1.93697 -1.44456e-21)
(0.496634 1.35813 -2.75919e-19)
(0.490191 1.35853 3.03108e-19)
(0.453211 1.30136 -3.15218e-20)
(0.436459 1.28464 7.77774e-21)
(0.63926 1.30784 0)
(0.555313 1.39813 1.04816e-19)
(0.5704 1.40572 -1.02033e-19)
(0.466876 1.29042 3.07215e-20)
(0.520954 1.24068 0)
(0.572558 1.20339 0)
(0.653927 2.40881 5.79992e-19)
(0.669563 2.45022 1.26089e-18)
(0.714004 2.4609 -8.68809e-19)
(0.610268 2.43482 -2.01978e-19)
(0.560088 2.52521 2.8389e-19)
(0.50935 2.49996 -7.57513e-19)
(0.978196 2.37505 -5.73743e-19)
(1.01241 2.38727 0)
(0.925719 2.16979 -6.59562e-19)
(1.05387 2.67389 0)
(1.05614 2.66048 0)
(0.599666 2.25828 -1.259e-19)
(1.03706 3.1544 1.29386e-19)
(0.908182 3.02478 -3.27803e-20)
(0.26523 0.85275 0)
(0.292626 0.697317 -3.17388e-19)
(0.462118 0.656825 -3.18999e-19)
(0.379432 2.00283 0)
(0.462349 2.77925 -5.00436e-20)
(0.416158 2.54182 0)
(0.714137 0.668221 -8.39442e-19)
(0.798458 0.684465 1.12612e-18)
(0.818779 0.625913 -1.11269e-18)
(0.691672 0.631312 -1.07709e-19)
(0.746657 0.588772 -4.41881e-19)
(1.00076 2.75368 -9.84012e-20)
(1.04135 2.8146 -1.64742e-19)
(0.632311 2.12306 6.94636e-19)
(0.585034 1.69125 -4.94876e-19)
(0.694073 1.89013 -4.06458e-19)
(0.986866 2.43749 -1.12922e-19)
(0.993721 2.43055 2.96014e-19)
(0.650237 1.82407 2.82372e-20)
(0.44165 1.31178 1.44215e-19)
)
;

boundaryField
{
    wall-4
    {
        type            noSlip;
    }
    velocity-inlet-5
    {
        type            fixedValue;
        value           uniform (1 0 0);
    }
    velocity-inlet-6
    {
        type            fixedValue;
        value           uniform (0 3 0);
    }
    pressure-outlet-7
    {
        type            zeroGradient;
    }
    wall-8
    {
        type            noSlip;
    }
    frontAndBackPlanes
    {
        type            empty;
    }
}


// ************************************************************************* //
