/*--------------------------------*- C++ -*----------------------------------*\
| =========                 |                                                 |
| \\      /  F ield         | OpenFOAM: The Open Source CFD Toolbox           |
|  \\    /   O peration     | Version:  4.0                                   |
|   \\  /    A nd           | Web:      www.OpenFOAM.org                      |
|    \\/     M anipulation  |                                                 |
\*---------------------------------------------------------------------------*/
FoamFile
{
    version     2.0;
    format      ascii;
    class       volScalarField;
    location    "33";
    object      p;
}
// * * * * * * * * * * * * * * * * * * * * * * * * * * * * * * * * * * * * * //

dimensions      [0 2 -2 0 0 0 0];

internalField   nonuniform List<scalar> 
918
(
0.570448
1.21835
0.0044163
0.569623
-0.00938604
1.186
-0.488231
0.739077
0.550286
-0.0719627
-0.00952817
0.544677
1.04664
0.812413
-1.10873
0.10643
0.691211
-0.366584
0.549624
-0.0937652
0.773531
0.556759
0.559792
0.550193
0.612298
0.796957
0.927022
-0.0592994
-0.0135728
-0.041403
-0.0123633
-0.0105323
0.0195129
1.06936
1.11998
1.14254
0.519088
0.355368
-0.33337
-0.416557
-0.409123
-0.536315
0.732098
0.73362
-0.158979
0.740665
0.750749
0.537949
0.549623
0.550558
0.551671
0.550613
0.552044
0.429855
-0.0825528
-0.112205
-0.0510906
-0.0409274
0.100798
-0.0118194
-0.0159567
-0.00705673
-0.0151627
0.469805
0.540797
0.537994
0.549383
0.557102
1.1571
1.12814
1.15374
1.07067
1.08555
1.02433
0.996282
0.833283
0.854533
0.798108
0.786869
-1.53132
-2.49051
-0.522557
-0.269641
-0.039919
0.103591
0.0992586
0.681823
0.681331
0.690042
0.705053
1.09901
-0.359011
-0.498676
0.549448
0.548419
0.556537
0.556895
0.554056
0.55214
-0.0914983
-0.0771876
-0.105933
-0.0989044
-0.0992833
0.761508
0.760779
0.55188
0.548482
0.563742
0.58189
0.576968
0.304403
0.614549
0.626058
0.614306
0.784919
0.779806
0.788052
0.901439
0.864678
0.964676
0.987934
-0.0522859
-0.0551407
0.131148
0.0927712
0.09589
0.515048
0.507068
0.533557
0.522468
0.524852
0.271736
0.138132
0.449472
0.477777
-0.244936
-0.318786
-0.412415
-0.44063
-0.556812
0.635972
0.719967
0.720299
-0.169902
-0.102181
-0.236609
-0.0174298
-0.0839901
0.528337
0.535291
0.529679
0.545256
0.540005
0.541583
0.55391
0.550987
0.552507
0.490891
0.594173
0.362056
0.324395
-0.227927
-0.124209
-0.228787
-0.029726
-0.0230811
0.10799
0.12785
0.0877289
0.0831502
-0.0213621
-0.0147983
-0.0193954
-0.0204508
-0.0245788
0.464559
0.455031
0.483169
0.490098
0.531736
0.532577
0.535406
0.53412
0.946621
0.969007
0.977513
0.951244
-3.50758
-6.56226
0.0583921
0.198405
-0.109527
-0.10907
-0.0605865
-0.02615
-0.0394962
-0.0130604
0.0686883
0.0628142
0.0713892
0.0776465
0.665727
0.666717
1.0049
0.994789
0.969168
0.913561
0.537615
0.539727
0.545255
0.540738
-0.0404748
-0.067177
-0.0496704
0.749014
0.756439
0.75556
0.268353
0.184889
0.354547
0.38205
0.649292
0.633643
0.648018
0.675467
0.711168
0.994329
1.01229
1.01247
1.02059
1.06577
1.07878
1.04444
0.495501
0.504911
0.500565
0.536782
0.534447
0.535378
0.530891
0.532356
0.529612
-0.0323794
-0.393014
0.548777
0.562354
0.533974
0.545944
0.703925
0.769449
0.703093
0.711729
0.713598
0.0504157
-0.0110455
0.278934
0.245697
0.407724
0.442179
0.420266
0.917512
0.879461
0.929458
0.902477
0.863079
0.888538
-0.432266
-1.67393
-0.932765
0.556281
0.365268
0.45378
0.067479
0.0604373
0.067546
0.979664
1.07363
0.641318
0.826299
0.875177
0.751129
0.782033
0.837858
0.762579
0.796755
0.831042
0.812785
0.594967
0.564102
0.560945
0.834674
0.885988
0.16517
0.116098
0.0608854
0.147201
0.197836
0.176366
1.03066
0.941614
1.01044
0.548076
0.548675
-0.112923
-0.117853
0.552816
0.552999
-0.0280817
0.0250404
0.439366
-0.806438
0.145008
0.540956
0.531418
0.548231
-0.0657533
0.396084
-0.0180913
0.0976915
0.0657141
0.54181
0.480241
0.442467
-0.177315
0.0828256
-0.0820078
-0.194378
0.54559
0.543747
0.54774
0.548818
0.549443
-0.201245
-0.165049
-0.170835
-0.128795
-0.124778
-0.111624
0.513257
0.530012
-0.145289
0.547856
0.550062
0.549868
0.542704
0.548558
0.546488
0.0400997
0.0375906
0.0822054
0.259411
0.376441
0.684862
0.786917
0.654566
0.421893
0.172229
0.58585
0.651374
0.556156
0.710993
0.710694
0.732848
0.212909
0.0544751
0.215878
0.156789
0.539141
0.537495
0.529787
0.52683
0.543188
0.541348
0.545757
0.542657
0.545588
0.547062
-0.0166887
-0.0362424
-0.0611621
-0.125702
0.352937
0.618383
0.284025
0.327098
0.179583
-0.00440156
-0.0102152
-0.0175608
-0.0243991
0.041599
0.0423515
0.0932226
0.098473
0.0837675
0.0577793
0.0377719
0.0299096
0.0198015
0.535539
0.534191
0.540284
0.548318
0.489441
0.493151
0.459405
0.479445
0.465119
0.407419
0.441926
0.417146
-0.0464508
-0.129229
-0.065641
0.0615695
0.0592488
-0.101098
-0.177058
-0.148798
-0.143201
-0.170548
-0.0649978
-0.0651806
-0.154949
-0.27046
1.00053
0.936915
0.12377
0.534633
0.541167
0.537817
0.542761
0.545794
0.546677
0.544453
0.541026
0.530576
0.532434
0.528767
0.529228
-0.078333
-0.22488
-0.0526319
-0.113545
0.145345
0.64551
0.389185
0.319746
0.319033
0.544194
0.954602
0.724628
0.716769
0.755502
-0.343156
0.0369435
-0.279052
0.311043
0.133592
0.682992
0.734834
0.758897
0.703402
0.655375
-0.234208
0.551694
-0.030203
0.013292
0.212149
0.105778
0.732807
0.694972
0.701358
0.719484
0.739999
0.698307
0.678857
0.674973
0.716273
0.722446
0.517569
0.295146
0.238571
0.20755
0.680911
0.557401
0.611477
0.526707
0.533927
0.536751
0.535262
0.518004
0.525321
0.520965
0.526668
0.529683
0.539151
0.539706
0.534762
0.537034
-0.0169446
-0.0217962
0.00465854
-0.116359
-0.105869
-0.174495
-0.0386144
0.0822016
0.0526599
0.246819
0.327324
0.0561595
-0.0427001
-0.01428
0.00328301
0.182577
0.241165
0.102651
0.193255
0.180277
0.164547
0.280215
0.279713
0.0114817
0.00473811
-0.00205318
-0.00102548
0.0630669
0.134113
0.152591
0.0344293
0.0365974
-0.000921949
-0.0115228
0.00720228
0.00361543
0.00761815
0.0478514
-0.0501941
0.0277833
0.0292506
0.0386978
0.0490684
0.0371869
0.529312
0.53115
0.530974
0.537974
0.554111
0.569264
0.530446
0.511604
0.502425
0.505184
0.478899
0.489273
0.485386
0.497202
0.51805
0.526336
0.524956
0.527485
0.510941
0.512468
0.500132
0.503149
0.481169
0.46236
0.450421
-0.072962
-0.0952272
-0.0755633
-0.0554088
-0.0553718
-0.0353261
0.0587199
0.058325
0.0531558
0.0533072
0.0514392
-0.0827711
-0.0716433
-0.0619855
0.0171348
-0.167772
-0.202335
-0.276796
0.905358
1.00749
0.830208
0.601327
0.609927
0.852756
0.936603
0.575221
0.740274
0.773878
0.610991
0.855302
0.539653
0.539181
0.536734
0.536251
0.53758
0.0113936
0.116417
0.116988
0.179908
0.291916
0.414541
0.321926
0.190308
0.323102
0.31728
0.639423
0.657959
0.602584
0.62788
0.625604
0.45389
0.530648
0.587065
0.541151
0.583938
0.603738
0.568288
0.595333
0.544663
0.499458
0.500942
0.447526
0.460289
0.440803
0.424284
0.529348
0.506215
0.517069
0.507224
0.528425
0.553783
0.547052
0.575679
0.58672
0.513599
0.473989
0.481342
0.512639
0.472478
0.485628
0.500297
0.241064
0.171347
0.207376
-0.0839454
0.00101437
-0.074888
-0.106929
0.0107712
0.309798
-0.4321
-0.493158
-1.05001
0.496314
1.01904
0.688597
0.631126
0.736012
0.711151
0.711244
0.743648
0.747193
0.670977
0.688297
0.695781
0.643301
0.667163
0.695022
0.691845
0.540013
0.398519
0.388192
0.354018
0.234493
0.270761
0.472163
0.386562
0.315575
0.331783
0.491473
0.387165
0.450219
0.47892
0.399706
0.372685
0.56696
0.638785
0.628332
0.602658
0.520516
0.531449
0.561351
0.595729
0.62097
0.657536
0.526564
0.532191
0.53349
0.530966
0.528124
0.53095
0.531027
0.533694
0.534501
0.537573
0.536534
-0.0171423
-0.0054335
-0.0104811
-0.0194188
0.00511278
-0.000733915
0.0487722
0.0360094
0.0206295
0.0282631
-0.000418359
-0.0014037
0.00366386
0.0111306
0.126842
0.129474
0.110401
0.0756869
0.249435
0.389857
0.451262
0.330177
0.239072
0.265165
0.28132
0.0145589
0.0491817
0.0355797
0.0739996
0.0641008
0.00460096
-0.00416966
-0.00915602
0.0127519
0.0213133
-0.0133921
-0.0433659
-0.0199764
-0.0172303
-0.014699
-0.0399622
0.514098
0.507857
0.507882
0.5028
0.502013
0.514312
0.518668
0.520966
0.526259
0.527915
0.518887
0.523896
0.527338
0.0165984
-0.0493582
-0.0235767
-0.0167034
-0.0390229
-0.0551966
-0.042809
0.134289
0.059772
0.0589377
0.0202819
-0.106742
-0.0503312
0.505906
0.507143
0.522867
0.729479
0.580534
0.506419
0.611602
0.709025
0.278235
0.4737
0.308396
0.889008
0.782148
0.928609
0.534714
0.245822
0.404733
0.462805
0.253262
0.331134
0.332879
0.235794
0.264198
0.28604
0.388259
0.283315
0.265297
0.0156375
0.210451
0.32871
0.314735
0.440305
0.509432
0.262011
0.190921
0.15825
0.630225
0.651009
0.67486
0.640142
0.666267
0.588104
0.579062
0.597914
0.606451
0.599888
-0.775532
-0.484831
-1.4006
-0.691958
-0.252084
0.526778
0.492737
0.767939
0.656854
0.717298
0.704206
0.676151
0.639942
0.65016
0.682784
0.388752
0.49193
0.46895
0.472412
0.36829
0.313319
0.608266
0.59997
0.639633
0.662637
0.629123
0.664844
0.524117
0.523788
0.523515
0.520245
0.518563
0.520502
0.0853016
0.0552894
0.0959112
0.0744141
0.0511414
0.0363263
0.0339179
0.0207012
0.00761271
-0.00328972
0.0286063
0.0386942
0.166814
0.106634
0.0374782
0.064688
0.00743235
-0.0613117
-0.0803821
0.0207582
0.112035
0.114038
0.414325
0.652642
0.474962
0.643278
0.509413
0.541126
0.513964
0.506497
0.537691
0.410823
0.483799
0.28913
-0.244058
-0.125688
0.749919
0.814555
0.590912
0.459833
0.16867
0.299067
0.56853
0.496165
0.539373
0.609898
0.601385
0.0194882
0.0492432
0.379909
0.581974
0.252305
0.185005
0.201335
0.363457
0.317446
)
;

boundaryField
{
    wall-4
    {
        type            zeroGradient;
    }
    velocity-inlet-5
    {
        type            zeroGradient;
    }
    velocity-inlet-6
    {
        type            zeroGradient;
    }
    pressure-outlet-7
    {
        type            fixedValue;
        value           uniform 0;
    }
    wall-8
    {
        type            zeroGradient;
    }
    frontAndBackPlanes
    {
        type            empty;
    }
}


// ************************************************************************* //
