/*--------------------------------*- C++ -*----------------------------------*\
| =========                 |                                                 |
| \\      /  F ield         | OpenFOAM: The Open Source CFD Toolbox           |
|  \\    /   O peration     | Version:  4.0                                   |
|   \\  /    A nd           | Web:      www.OpenFOAM.org                      |
|    \\/     M anipulation  |                                                 |
\*---------------------------------------------------------------------------*/
FoamFile
{
    version     2.0;
    format      ascii;
    class       surfaceScalarField;
    location    "33";
    object      phi;
}
// * * * * * * * * * * * * * * * * * * * * * * * * * * * * * * * * * * * * * //

dimensions      [0 3 -1 0 0 0 0];

internalField   nonuniform List<scalar> 
1300
(
3.75095
5.62643
-3.51075
3.75095
-4.98779
5.62643
-4.47637
4.47637
-1.00647
1.00647
1.87649
1.87446
-3.08221
3.08221
-2.49288
2.49288
-2.55436
2.55436
-5.24648
5.24648
-5.06878
5.06878
4.66109
-4.66109
-5.65456
5.65456
-1.38002
1.38002
-3.91372
3.91372
3.16878
-3.16878
-2.26064
2.26064
-0.276884
0.276884
-0.553175
4.30413
3.19778
3.19778
-2.0504
2.0504
-4.86393
4.86393
6.21768
-6.21768
4.90316
-4.90316
-1.39241
-2.81918
0.740927
-10.1307
-4.24686
-4.24686
-8.44022
8.44022
-2.81379
2.81264
2.94379
-2.94379
-1.86257
1.86257
-4.3995
-0.0768769
-4.3995
4.47855
-0.00217397
4.47855
-1.10484
0.0983749
-1.10484
3.96817
-3.96817
0.864405
0.142064
0.864405
3.06491
-3.06491
-1.87714
3.75363
1.87382
-1.87177
6.1759
-1.87918
3.75364
-5.90894
5.90894
-3.28125
0.199034
-3.28125
2.8893
0.192909
2.8893
-6.68729
6.68729
-2.4974
0.0045248
-2.4974
2.47477
0.01811
2.47477
2.86367
-2.86367
-2.65437
0.100014
-2.65437
2.44445
0.109911
2.44445
0.353681
5.27275
-5.98011
8.79275
-5.27275
0.026267
5.20833
0.0381566
5.20833
-5.10596
0.037183
-5.10596
5.01126
0.0575167
5.01126
4.73722
-0.0761298
4.73722
-4.78572
0.124632
-4.78572
-3.30495
-5.49778
-6.03859
0.384027
-6.03859
-1.38102
0.00100104
-1.38102
1.33867
0.0413473
1.33867
-3.57438
3.57438
-4.27242
0.358698
-4.27242
3.12263
0.0461498
3.12263
1.86903
1.88193
5.61998
-5.61998
2.4512
-2.30226
0.0416176
-2.30226
-2.25659
-2.64657
2.25659
0.00405116
-0.541425
0.264542
-0.541425
3.16002
0.0377572
3.16002
2.28894
0.155503
-2.28894
0.238539
3.19755
-3.19755
1.41655
0.633857
1.41655
-5.56678
5.56678
4.95356
0.0577034
-4.95356
0.0896218
6.15686
0.0608245
6.15686
-6.19984
-0.0178455
-6.19984
1.53952
-4.35869
-3.58311
5.03306
0.621503
-5.03306
0.786197
2.91399
0.0297945
2.91399
-2.91958
2.91958
-2.9834
0.0396114
-2.9834
-2.24643
0.383864
-2.24643
1.57857
0.284001
1.57857
-4.27642
-0.123081
-4.27642
-4.39719
0.12477
4.39719
0.0813604
1.1533
-1.1533
-1.21946
0.11462
-1.21946
-4.11878
-0.157639
4.11878
-0.150604
-3.81539
-0.152779
-3.81539
-3.02364
0.0402438
3.02364
0.0412646
3.11305
0.046973
-3.11305
0.0481407
-1.8709
3.75283
-1.88005
3.75387
-5.53176
-0.377178
-5.53176
6.21771
-0.308764
6.21771
3.61678
0.296935
-3.61678
0.335538
2.73767
0.151631
2.73767
-6.66919
-0.0181069
-6.66919
6.66306
0.0242288
6.66306
2.60292
0.134748
-2.60292
0.105521
2.4008
0.0739712
2.4008
2.87858
-0.0149148
2.87858
-2.86362
-4.73611e-05
-2.86362
2.79942
-2.79942
2.7311
0.0683157
-2.7311
0.0767308
-11.1328
11.115
-0.0352489
-11.0976
5.17308
5.17308
4.15234
0.584882
4.15234
-5.00022
0.214503
-5.00022
2.28793
-5.87104
4.93459
-8.23954
5.49828
-15.629
3.76726
-9.26504
6.47091
-6.47091
6.28104
0.189865
-6.28104
0.242453
-1.40099
0.0199657
-1.40099
-2.9757
-0.598683
-2.9757
4.22505
-0.650668
4.22505
-3.02804
3.02804
-3.07683
0.0487842
3.07683
0.0457998
2.30585
0.094943
-2.30585
0.00359267
0.707503
0.156903
-0.707503
0.166077
3.38457
-0.187019
3.38457
-3.01966
-0.177889
-3.01966
-1.41122
0.0102343
1.41122
0.0053252
-5.81654
0.249757
-5.81654
-11.1908
0.0932018
-11.1526
-6.10663
-6.10663
2.33358
11.1263
-2.88666
0.0230388
2.88666
0.0273359
2.9748
0.0532463
-2.9748
0.0552217
-2.86137
0.0619479
2.86137
0.0582085
-2.63123
0.384797
-2.63123
-1.17283
1.17283
-1.34779
0.174962
1.34779
0.23078
1.37602
-0.222727
1.37602
1.29164
0.0470339
-1.29164
0.0721766
-3.69025
-0.12514
-3.69025
6.44362
-0.225918
6.44362
-2.92597
-0.0936912
2.92597
-0.0473867
-0.0333582
11.1483
-5.13972
0.0337592
5.13972
-11.2091
11.2429
-3.25901
0.62778
3.25901
0.893326
5.28998
0.276802
-5.28998
0.289757
6.59329
0.0697777
-6.59329
0.122381
-2.49528
-0.480421
-2.49528
-4.9644
-0.567361
4.9644
-0.739349
-11.4739
-0.204048
11.6779
-11.4164
6.02059
0.13627
-6.02059
11.3792
-1.09191
-0.0613904
1.09191
0.080919
1.6733
-0.297277
1.6733
3.57259
-0.188028
-3.57259
-0.117659
-6.5957
-0.0734821
6.5957
-0.15208
-2.06131
-0.43397
2.06131
-0.388011
-4.26688
4.30463
1.90903
-1.62539
-2.7333
-4.27196
1.85167
1.90116
4.30288
-10.2422
-5.38686
-9.45596
7.26248
-6.97272
-9.27541
9.19928
7.58449
-7.73727
-5.78724
5.83304
6.48236
-6.4411
1.8787
1.87492
7.83859
-7.63956
-15.6837
15.3065
7.4362
-7.43168
15.7881
-15.8062
-17.7954
17.8652
-5.72746
5.82748
-6.72395
6.7239
-6.93672
6.88933
-2.90046
-5.33908
13.1095
-12.7255
7.52094
-7.47932
-8.47417
8.83287
3.38194
0.922692
3.42891
-1.88238
3.76108
-1.87126
3.78029
3.646
-6.54646
2.22503
-4.95833
3.36834
4.1526
-3.37239
-0.899572
-5.9179
5.94769
-5.82402
5.88223
8.97396
-9.05083
-1.88518
3.76011
-1.86868
3.76984
-3.4266
-2.36065
3.38045
0.922431
7.69018
5.41933
-8.31168
-1.14428
-7.87716
7.68913
-8.13635
7.95846
-0.438078
5.81716
-5.37908
4.42586
-1.55343
7.37059
5.70905
5.92355
5.86456
-5.58776
1.10816
-6.48724
-6.39762
-2.54171
2.65633
2.47891
-2.33684
5.96715
1.61733
5.81655
-5.58873
-2.14854
-5.71387
3.82201
2.01104
3.87079
4.07605
2.40631
4.11629
3.03078
-3.03548
0.00470132
-3.05625
6.08703
0.72463
-5.4169
-4.49447
4.89844
2.94015
5.09135
-5.45449
-2.18506
-5.11896
-9.54823
-6.13543
-10.1156
10.1257
5.18079
9.81694
-11.9906
11.8385
4.72542
2.71079
4.74353
-4.91307
-2.51861
-4.80755
11.6362
-2.54055
-9.09566
-10.2993
-7.49617
10.275
5.51307
10.9123
6.95289
11.0347
4.42676
7.20945
-9.93983
2.44366
-3.87189
-1.85557
-3.79516
3.70192
2.12556
3.81183
-4.21174
-2.51221
-4.1887
-4.28512
-2.6516
4.30003
2.42387
-4.39598
-3.74037
4.48968
2.39966
5.18569
-10.5726
4.07934
-9.41842
-9.17831
-3.54717
-8.93585
4.09117
3.08539
-7.17657
-2.45529
8.31319
-4.16059
7.41362
-4.43195
-3.04737
-4.42836
-6.75425
-1.71992
-6.62948
-8.85772
8.3773
-9.19148
8.54082
12.6692
-5.72457
-6.94465
-3.9683
-2.4728
3.92016
-0.491247
-3.71089
3.71559
0.0501901
3.83048
4.75317
4.26193
-3.88818
-1.93584
-3.83296
3.83381
2.04842
3.89575
6.7511
2.22286
6.74892
-6.48266
-2.56817
-6.60574
9.04196
-8.65809
2.89939
-2.88915
5.29904
2.65942
-5.11202
-2.76513
6.2025
-3.14956
-3.05294
-12.2112
10.5762
1.63505
-4.84061
-0.414755
-0.137872
-5.49488
-3.78053
5.37025
0.553305
11.1295
7.34892
-5.51125
5.76101
6.16667
6.22437
-0.173246
5.77803
-5.15025
5.32135
-2.39181
-2.92954
5.32981
-5.48745
-1.27593
-5.28466
4.00874
0.329094
1.70134
-1.4368
-2.00986
-0.531847
-1.93768
1.47598
1.00292
1.63289
0.968747
1.68758
-2.9553
0.550886
2.40441
-1.98655
-1.78596
-3.69838
-1.04963
4.74802
5.63741
2.05172
-5.51975
-0.194122
2.69711
-2.65576
-0.781135
-2.91725
2.1327
-2.91384
-3.64053
-1.88702
5.52755
-3.3714
-0.461559
3.31815
0.552641
-3.82474
-2.09315
3.78513
0.331158
-3.12432
6.18839
-3.06407
-5.06017
2.5292
3.55782
4.54024
-4.78898
2.44579
2.34319
-1.23115
4.19417
0.897182
4.3458
-6.67752
4.49246
5.72562
3.10725
-6.02256
0.9036
-5.77392
8.43789
-7.24889
-1.189
4.09133
4.34656
7.18534
5.48388
-5.75649
12.9418
-1.1659
-6.08299
6.93982
-3.83257
4.74261
-8.57518
-10.2265
4.14349
-9.2568
11.0061
-1.74933
-3.62118
-8.3694
12.878
-1.22162
-11.6564
8.59531
-4.20033
-4.27233
8.47266
-6.74088
6.79093
-1.97456
-4.81637
-10.1259
-5.68033
10.1994
1.63912
-9.85001
12.2937
-2.64056
3.88726
0.856262
3.96124
3.247
-5.37773
2.13073
3.49387
-5.46843
2.07223
-7.44997
-7.02707
12.6305
-5.60347
-10.5742
-9.64028
-0.933962
2.49943
9.79424
-9.45231
7.35156
2.10075
3.31034
0.585417
-3.37865
-0.416508
0.260844
4.54062
-4.80147
4.07267
4.22817
3.37209
1.16853
3.83917
2.10852
-3.8665
-0.322199
-4.15374
1.50213
-1.72986
-3.66048
5.16261
-4.067
0.406524
-2.73184
-3.50951
6.24136
-4.58742
3.038
3.15039
5.08642
-4.91238
1.40287
-2.40351
-2.50887
2.66413
-4.39399
1.95106
3.21155
4.35071
0.610345
6.43106
6.19947
-9.51646
0.0980359
11.6188
-10.4745
2.53004
8.50467
-9.8816
0.241324
-8.69453
1.48063
-5.64122
-5.69594
5.06453
-6.78446
-3.51064
6.12241
0.626516
-6.20377
-0.425715
-6.03272
-2.825
-6.46669
-3.05521
-6.13627
-8.81171
-1.64235
-7.16936
6.73495
-6.68004
-3.43555
7.41939
1.12143
-7.38724
7.32585
-7.4706
7.17332
0.0949306
3.62066
4.35686
1.88406
-2.38951
4.27357
-5.04165
7.26451
-8.51873
3.47708
4.00305
-6.57122
-4.51568
5.03278
4.00918
5.31678
8.91549
-10.4164
1.50088
-10.7504
12.0719
-1.32153
-16.5049
5.75453
-7.58944
2.64348
0.255904
2.66345
0.656257
2.43928
-3.09553
-2.23289
-2.22757
-2.34595
-3.42851
5.77446
1.14737
-3.43898
2.2916
-3.49306
4.64044
-0.0620257
-3.37695
5.29412
-2.85484
5.55002
-3.55509
1.99493
3.34766
5.7229
-2.37525
4.35331
-1.69389
1.84033
-4.21557
-1.58818
-2.96807
5.09363
-3.27329
3.67981
-0.292165
3.97198
-4.09388
0.944321
-0.721789
3.50638
3.74492
4.28283
-3.1143
2.98568
-4.67957
-1.22989
-4.06923
-0.857677
-0.291785
-3.76754
4.05932
6.03724
-6.32902
-5.23002
9.5432
-4.31317
7.72529
-5.3899
-2.33539
-4.24781
-4.41029
3.86301
1.91502
9.64031
0.235739
-5.62564
-4.91451
-4.02119
3.20507
2.11628
-1.91165
3.5467
2.04952
-0.348179
0.56821
1.06467
1.86761
-1.2994
0.206047
1.66156
-1.23075
1.98004
0.71707
-2.02707
0.0893909
-1.36016
3.49287
1.04425
-2.04717
0.747769
1.07726
-3.46906
4.8757
-2.48829
-2.38741
5.95295
1.14636
-3.63465
4.13831
-3.80921
2.33446
-3.38409
-1.30019
-5.1094
-3.49206
-2.55822
4.84983
-3.21623
5.26795
1.2093
-5.07383
6.28313
-3.56175
1.67473
-3.08231
3.79938
-1.07869
-2.00362
2.8051
2.72245
-2.93636
0.0191144
-0.13126
2.3346
-2.46586
-0.579238
-2.56579
-4.57242
4.90358
-2.10747
4.55326
2.1661
-1.91434
6.4676
1.81154
-3.72589
-3.24862
-3.71018
-1.3827
3.15754
-0.56333
-4.24422
-5.3797
4.10947
0.236329
-6.82834
7.64239
-0.814057
-3.88819
-0.604273
4.6956
-5.94467
0.476238
-3.87244
3.76996
4.66714
4.90347
-11.4593
-0.197074
-6.2785
1.16827
-7.44676
5.51483
-3.63091
7.77441
-10.4323
6.99679
-9.31092
6.58541
-0.861357
6.25516
-4.12443
2.8405
-8.52082
-6.8817
5.43974
-2.72896
6.29601
-3.10314
9.39915
-5.7437
5.08329
4.31585
-0.638751
-3.78961
-5.34986
4.71111
-0.266568
3.69467
4.97084
-2.86232
4.64864
2.25756
-4.66107
-2.13643
-6.50203
1.84096
-3.35164
-1.91562
3.75657
3.17081
3.75622
1.2477
-3.33972
7.42984
-8.36381
-1.82638
-3.86956
5.39779
-0.686681
3.2908
-7.16036
-2.35042
4.89468
-0.8386
-4.05608
0.829892
-4.34053
1.64619
-5.98673
5.13826
-5.56398
2.18449
-9.77394
-5.20275
-5.12183
-2.2293
-5.2413
-7.61635
5.38705
-1.86182
5.46403
-8.58708
7.74848
-3.48485
8.8719
-5.44193
-1.02476
5.82994
1.34338
10.2153
0.182329
-4.69801
-1.89753
3.95723
-2.0597
1.30754
-3.58521
0.372019
2.48371
3.46924
-6.49245
-0.0787711
-4.77678
-3.9268
7.93598
5.6164
11.6536
1.23727
9.11665
-1.18067
10.3539
4.13611
4.36689
-3.04698
4.54786
1.01235
4.48943
-0.837645
2.83258
1.8258
1.8268
0.828961
2.32041
1.42451
3.26473
0.169197
-2.05837
4.63299
-8.65418
-0.992654
-8.06929
1.12999
5.82697
-4.69698
3.08979
-0.973505
1.03008
0.132274
-1.6483
1.51603
-2.79727
-1.99648
-0.334914
-1.61159
2.35936
1.88127
-2.02445
-0.772822
0.333802
-3.82587
3.05029
-3.03118
-0.308729
5.9744
-2.75027
0.284406
-1.07554
-2.28138
-2.81323
2.72384
6.17631
0.291293
3.11224
5.19487
3.10171
0.239396
3.90829
-5.65763
-3.54167
-5.8547
-0.33987
4.35573
1.73302
8.06122
6.04887
5.36219
-1.79817
-10.162
6.56672
-2.01885
5.24519
-1.18911
-4.79762
4.95068
2.31383
-5.5772
0.0132196
-4.7844
-6.80326
-0.556409
8.30489
-9.65888
8.63412
5.80912
1.36025
-4.40064
-0.721196
4.22567
0.141212
10.4951
-1.18231
-6.74116
7.92348
-4.64466
3.652
0.791725
2.75497
2.30775
1.33425
-5.40692
-10.1039
-1.90649
-1.56258
-4.29389
0.454123
-2.3354
6.27344
-2.62144
3.93806
5.30204
6.33212
-2.14916
-4.17986
6.46234
-2.52428
3.80784
)
;

boundaryField
{
    wall-4
    {
        type            calculated;
        value           uniform 0;
    }
    velocity-inlet-5
    {
        type            calculated;
        value           uniform -3.75095;
    }
    velocity-inlet-6
    {
        type            calculated;
        value           uniform -5.62643;
    }
    pressure-outlet-7
    {
        type            calculated;
        value           nonuniform List<scalar> 8(3.51075 4.98779 4.21159 9.38981 8.80272 5.12263 7.22252 9.26554);
    }
    wall-8
    {
        type            calculated;
        value           uniform 0;
    }
    frontAndBackPlanes
    {
        type            empty;
        value           nonuniform 0();
    }
}


// ************************************************************************* //
