/*--------------------------------*- C++ -*----------------------------------*\
| =========                 |                                                 |
| \\      /  F ield         | OpenFOAM: The Open Source CFD Toolbox           |
|  \\    /   O peration     | Version:  4.0                                   |
|   \\  /    A nd           | Web:      www.OpenFOAM.org                      |
|    \\/     M anipulation  |                                                 |
\*---------------------------------------------------------------------------*/
FoamFile
{
    version     2.0;
    format      ascii;
    class       volVectorField;
    location    "33";
    object      U;
}
// * * * * * * * * * * * * * * * * * * * * * * * * * * * * * * * * * * * * * //

dimensions      [0 1 -1 0 0 0 0];

internalField   nonuniform List<vector> 
918
(
(0.985094 -0.000543922 0)
(0.00478961 2.96626 0)
(-0.0489386 0.921688 0)
(0.979826 0.00241193 0)
(-0.0592984 1.31985 6.43789e-21)
(-0.00704913 2.94891 -1.10166e-18)
(0.830123 1.19005 1.76752e-19)
(0.330395 0.158386 -6.57802e-21)
(0.999904 -0.000308475 0)
(0.043256 0.880369 0)
(0.00700499 0.700796 0)
(0.730863 -0.00967371 0)
(0.0114972 2.9302 0)
(0.00254851 2.79506 0)
(-0.0197107 3.15393 3.38942e-19)
(-0.0810391 1.78421 -3.95076e-20)
(0.409787 0.053825 4.31774e-19)
(0.171968 1.21628 1.23093e-19)
(0.96199 0.00390126 0)
(-0.0127665 0.634564 0)
(0.0808158 0.190325 -3.11946e-19)
(1.00217 -0.00520456 0)
(1.00076 -0.010162 0)
(0.97596 -0.0065317 0)
(0.578621 -0.0310452 0)
(0.0185398 2.63682 0)
(-0.0149769 2.91023 3.87787e-19)
(-0.0701714 0.831748 0)
(-0.203074 1.11056 0)
(-0.0609614 0.866482 0)
(-0.242346 2.51103 0)
(-0.0839834 1.51712 -4.98473e-21)
(-0.116919 1.27781 0)
(-0.0204578 2.98751 -3.96782e-23)
(-0.0169843 3.00539 8.75115e-19)
(0.00201127 3.00015 0)
(0.870409 -0.00883698 0)
(0.436886 0.972285 8.02238e-20)
(0.805949 1.20566 -1.84493e-19)
(0.955496 1.04342 2.0917e-19)
(0.676306 1.30221 -4.06091e-20)
(0.674279 1.29036 2.37589e-19)
(0.37358 0.243283 6.41378e-21)
(0.344889 0.131004 0)
(1.14032 0.577727 0)
(0.341238 0.239898 2.93387e-20)
(0.292039 0.164314 -3.04634e-20)
(0.919496 -0.00728231 0)
(1.00029 0.000141497 0)
(0.999916 0.000337506 0)
(1.00352 -0.00768557 0)
(1.00096 -0.00094802 0)
(1.00019 2.09677e-05 0)
(0.064854 1.7785 -3.33659e-19)
(0.025542 1.04214 0)
(0.0701655 0.940233 0)
(0.0245179 0.988633 0)
(0.0238936 0.815059 0)
(0.025507 1.99137 0)
(-0.0132601 0.830979 0)
(0.0291274 0.701447 0)
(0.000334097 0.829836 0)
(0.00397727 0.695839 0)
(0.836102 -0.0141676 0)
(0.850862 0.026926 0)
(0.765861 -0.000491046 0)
(0.825391 0.0359888 0)
(0.697859 -0.0125837 0)
(0.0153264 3.00067 4.00399e-19)
(0.011693 3.00836 0)
(0.00651207 3.00254 0)
(0.0141276 2.9972 4.49935e-24)
(0.00836588 2.95853 -6.05195e-19)
(0.0151986 2.98193 0)
(0.0112347 2.90365 0)
(0.0251955 2.93057 8.89615e-25)
(0.00505071 2.82513 0)
(0.0313227 2.91604 0)
(-0.00477961 2.74463 0)
(0.303957 3.54689 0)
(-0.145824 3.62376 0)
(0.135641 3.24642 -3.12859e-19)
(-0.0102516 2.98603 0)
(-0.315084 2.34974 0)
(-0.0913302 1.92871 3.89517e-20)
(-0.0378013 1.87946 -3.12308e-20)
(0.501965 0.149666 -1.49472e-19)
(0.40553 0.0364856 -1.44283e-19)
(0.487124 0.170767 -4.49259e-19)
(0.393281 0.0779892 -2.97038e-19)
(0.184584 0.919994 0)
(0.251172 1.34898 -1.47501e-19)
(0.361809 1.30473 2.49072e-19)
(0.987367 0.00823601 0)
(0.941288 0.0054781 0)
(1.00031 0.000429011 0)
(1.00326 0.00949278 0)
(1.00287 0.00785784 -1.13062e-18)
(0.991775 0.00988352 8.6332e-19)
(0.00470054 0.769337 0)
(-0.00775113 0.633791 0)
(-0.0501192 0.841909 0)
(-0.0134214 0.763556 0)
(0.0138134 0.627019 0)
(0.133254 0.199732 9.67406e-20)
(0.186395 0.18086 0)
(0.99335 -0.00826395 0)
(0.954447 -0.00616516 0)
(0.778786 0.0436094 0)
(0.719001 0.0539728 0)
(0.654566 -0.0243535 0)
(0.948749 -0.00642273 0)
(0.636384 0.070498 0)
(0.464066 -0.00942688 6.22061e-19)
(-0.0366761 2.86351 2.86799e-19)
(0.0422556 2.90874 0)
(0.0550629 2.88484 0)
(-0.00473734 2.69834 0)
(-0.0135627 2.98516 3.66356e-19)
(-0.0180855 2.89518 0)
(-0.0158371 2.98801 -1.1394e-18)
(-0.0131787 2.92538 3.9142e-19)
(-0.24083 1.15294 0)
(-0.285478 1.37327 0)
(-0.127574 1.80475 -1.27944e-21)
(-0.141826 1.66443 0)
(-0.0867177 1.57319 0)
(0.937757 -0.00763966 0)
(0.856526 -0.00812257 0)
(0.862921 0.00624501 0)
(0.948931 -0.00787663 0)
(0.883472 -0.00737683 0)
(0.545654 1.16691 -1.02297e-19)
(0.595576 1.20604 0)
(0.404558 0.925038 1.48793e-20)
(0.344584 0.780861 0)
(0.918507 1.08006 -5.59373e-20)
(1.02833 0.885899 1.12737e-19)
(0.363911 1.39245 0)
(0.530657 1.36531 0)
(0.533687 1.32104 0)
(0.116677 0.207668 -1.2533e-19)
(0.410535 0.230149 0)
(0.377589 0.116857 8.36696e-20)
(1.00316 0.938779 0)
(1.07319 0.790529 0)
(1.09573 0.732451 -8.49067e-20)
(1.11932 0.632282 0)
(1.1617 0.413957 2.38147e-20)
(0.957483 -0.00857571 0)
(0.962251 -0.0102879 0)
(0.901833 -0.00734616 0)
(0.984322 -0.00920174 0)
(0.974773 -0.00936238 0)
(0.937391 -0.00602864 0)
(1.00018 0.00215005 0)
(1.00087 0.00141987 0)
(0.999871 0.000905295 0)
(0.0275224 2.05006 1.83196e-19)
(0.0971592 1.72732 0)
(0.0110053 2.15865 2.88133e-19)
(0.0466107 1.84174 -2.43392e-19)
(0.101956 1.22335 -1.00601e-19)
(0.0416469 1.10638 0)
(0.116968 1.08281 0)
(0.017098 0.942328 0)
(0.0202448 0.766437 0)
(-0.00874272 2.18331 -5.72882e-22)
(0.0360709 1.98751 0)
(-0.00547491 2.16207 -2.97963e-20)
(0.0264486 1.99176 5.59437e-20)
(0.0228154 0.895064 0)
(0.00956635 0.853104 0)
(0.0239007 0.733142 0)
(-0.00280905 0.814192 0)
(-0.0208116 0.667694 0)
(0.933737 0.00865201 0)
(0.840416 -0.0150397 0)
(0.924477 -0.00134699 0)
(0.837953 -0.011982 0)
(0.811626 0.0021804 0)
(0.902409 0.0187923 0)
(0.880117 0.0228438 0)
(0.78827 0.00139929 0)
(0.00410329 3.06429 -3.53606e-21)
(0.0169855 3.05772 0)
(0.0153607 2.96901 0)
(0.00888453 2.87616 0)
(0.962416 3.9833 0)
(1.30706 3.2463 4.50839e-19)
(0.0689864 3.07662 0)
(-0.0250086 2.90764 0)
(-0.24926 1.51981 0)
(-0.297829 2.24206 0)
(-0.33326 1.93013 0)
(-0.248252 2.51706 -8.99952e-21)
(-0.272542 2.48108 0)
(-0.266095 2.46856 0)
(0.0172452 1.96932 -4.11228e-22)
(-0.0301989 2.05818 2.30231e-20)
(-0.0445271 2.00332 3.16374e-20)
(-0.00535432 1.93146 0)
(0.528314 0.122837 2.23714e-19)
(0.419154 0.0142755 -2.1977e-19)
(0.271344 1.55899 0)
(0.242069 0.707565 -1.25534e-19)
(0.177083 1.65134 -4.17312e-19)
(0.201118 1.17833 4.18273e-19)
(0.9018 0.0059044 0)
(0.967394 0.0106538 0)
(0.974404 0.0106357 0)
(0.923243 0.00591695 0)
(0.004119 0.803398 0)
(0.00387057 0.780882 0)
(0.00402027 0.63444 0)
(0.291407 0.235897 2.6972e-19)
(0.239871 0.213483 -3.19339e-19)
(0.247648 0.177591 0)
(1.07237 0.0835635 1.21615e-20)
(1.04993 0.0375215 0)
(0.991298 0.0372449 0)
(0.889154 -0.00874067 0)
(0.552645 0.0911838 0)
(0.577438 0.0690074 -9.97658e-19)
(0.437287 0.00152067 3.75529e-19)
(0.00903214 2.98159 3.05688e-19)
(-0.0326721 2.86727 1.9499e-20)
(0.00187689 3.04958 -7.47776e-21)
(0.0208378 3.04323 2.76104e-19)
(-0.0153794 2.99631 1.2845e-20)
(-0.0127814 2.94952 -5.18007e-23)
(-0.0175318 3.01149 -2.36161e-19)
(0.0141956 3.02304 1.6989e-19)
(0.00668075 3.03663 -2.7561e-19)
(0.931836 -0.00291278 0)
(0.938299 -0.00357257 0)
(0.842793 -0.00734669 0)
(0.956529 0.0114341 0)
(0.942973 0.0127307 0)
(0.881379 0.00559982 0)
(0.918456 0.0153353 0)
(0.926647 0.0144437 0)
(0.838655 0.00381698 0)
(0.759951 1.4332 2.58527e-20)
(0.803029 1.52505 0)
(0.231775 0.368655 3.17339e-20)
(0.240097 0.706642 2.52938e-19)
(0.290734 0.767741 -1.4967e-19)
(0.306842 0.572165 2.90286e-19)
(0.324115 0.797876 6.52484e-19)
(0.127235 0.23285 1.48657e-19)
(0.459104 0.195226 3.15106e-19)
(0.433093 0.215874 8.14234e-20)
(0.390367 0.099316 1.57231e-19)
(1.15277 0.470535 6.48184e-21)
(1.15818 0.267514 4.03229e-21)
(0.00396731 2.19828 1.12398e-19)
(0.0462068 1.91076 0)
(0.958684 0.0274282 0)
(0.935845 0.0105966 0)
(0.858064 -0.018491 0)
(0.0110266 3.07428 0)
(0.020414 2.94386 5.01985e-19)
(0.017199 2.95619 0)
(0.00668615 2.85069 -5.00311e-19)
(0.00565052 3.09085 1.18652e-19)
(0.00607079 3.08228 0)
(0.888331 1.8287 -6.91631e-20)
(1.27213 2.37962 1.19929e-19)
(0.86842 1.93281 -4.79068e-19)
(0.0203541 2.98196 -2.65661e-19)
(0.0363792 3.00316 0)
(-0.0327422 2.88025 0)
(-0.0136328 2.13647 -2.6266e-21)
(-0.0161089 2.09928 -4.52405e-20)
(0.0222503 1.98627 -1.23155e-21)
(0.277358 1.37585 4.0973e-19)
(0.194352 0.501846 -2.78944e-19)
(0.0538551 1.97896 3.16284e-19)
(0.153648 1.871 -3.79507e-19)
(0.147761 1.45509 4.00938e-20)
(0.00145557 3.11837 -7.36955e-19)
(0.0167551 3.11746 8.28796e-19)
(-0.00962717 2.98096 3.36675e-19)
(-0.00364756 2.97789 -3.19022e-19)
(-0.0213689 2.88208 -3.43078e-19)
(0.00765824 3.09903 -8.84006e-19)
(0.00140351 3.10621 8.8694e-19)
(0.282727 0.723532 0)
(0.245408 0.718301 -5.23048e-19)
(0.125829 0.245539 2.32397e-19)
(0.342509 0.915365 4.44496e-19)
(0.175753 0.27222 -6.85566e-19)
(1.1526 0.176346 3.30346e-20)
(1.16021 0.317101 0)
(1.13676 0.126357 -1.10228e-20)
(-0.00944965 2.19443 -8.32148e-22)
(-0.00288117 2.20478 0)
(0.0347483 1.95829 0)
(0.348503 1.27441 -1.47474e-19)
(0.3675 1.10932 -3.19654e-19)
(0.18307 0.357467 5.68782e-19)
(1.00554 -0.0111902 0)
(1.0075 -0.0074481 2.09983e-19)
(-0.133494 1.18975 0)
(-0.086161 1.0066 0)
(1.00199 0.0034259 7.9303e-22)
(1.00378 0.01001 4.24802e-19)
(-0.24641 2.51944 1.20959e-20)
(-0.229537 2.49353 0)
(0.0353202 3.17806 1.87695e-19)
(0.387001 3.48267 0)
(1.14881 0.644773 -3.13587e-20)
(1.01321 0.0135831 -7.61678e-22)
(1.02114 -0.0107937 0)
(1.00175 0.000103636 2.49875e-23)
(0.0969438 1.3459 0)
(0.156302 2.57892 0)
(0.0260286 1.3018 0)
(-0.00064 2.62229 2.87194e-20)
(-0.0245429 2.57112 2.39774e-20)
(1.00466 0.028022 1.00076e-21)
(1.06136 0.00279352 0)
(1.09225 0.0188968 0)
(-0.223363 2.15656 0)
(-0.0548493 2.54843 0)
(0.0273091 1.15441 0)
(0.294146 1.45636 -6.15356e-20)
(1.01123 -0.00990905 0)
(1.0094 -0.0153702 0)
(1.0024 0.000614065 2.66633e-19)
(1.00537 -0.00481532 -3.16616e-19)
(1.0012 -0.00107041 0)
(-0.106028 1.81759 0)
(-0.0951097 1.26663 0)
(-0.173103 1.59998 0)
(0.0131142 1.11617 0)
(0.0292707 1.00667 0)
(0.0163222 0.954218 0)
(1.03397 -0.00727566 0)
(1.02116 0.0161824 -3.80834e-22)
(0.80503 1.24885 9.1844e-20)
(1.00224 0.000377237 -2.66119e-19)
(1.00402 0.00531329 3.16342e-19)
(1.00118 0.0021181 0)
(1.01348 0.0105658 2.63846e-19)
(1.00859 0.00866721 -3.19624e-19)
(1.00931 0.0156728 0)
(-0.128123 2.57564 0)
(-0.198064 2.55377 2.10929e-20)
(-0.145888 2.52693 -2.10386e-20)
(1.21369 0.248841 2.6177e-19)
(1.14881 0.0740975 0)
(0.0464869 3.07492 -4.09311e-19)
(0.0658843 2.85179 -2.92896e-20)
(0.143919 3.19614 6.24077e-19)
(0.140763 3.22669 -8.19008e-20)
(0.134381 3.23544 0)
(0.0205658 3.13712 1.08081e-19)
(0.0772126 3.16138 3.99059e-19)
(0.0697897 3.18634 -2.05784e-19)
(0.0239743 3.12932 0)
(0.666526 0.301541 0)
(0.576491 0.353426 0)
(1.09796 0.668692 7.64248e-20)
(1.12687 0.804627 -7.69406e-20)
(1.16429 0.555063 0)
(1.2102 0.505232 0)
(1.01639 0.0136386 -4.98234e-19)
(1.01515 0.014822 6.24398e-19)
(1.02502 -0.0102991 0)
(1.02298 -0.0125022 0)
(1.00642 0.00256407 0)
(1.01011 0.00354378 0)
(1.00459 0.00187906 0)
(1.00994 0.00600454 0)
(1.00804 0.00634579 0)
(1.00439 0.00436177 0)
(0.0873527 1.34064 0)
(0.0799669 1.31092 0)
(0.11385 1.37539 0)
(0.132291 1.3964 0)
(0.14744 2.60169 0)
(0.188794 2.66171 -1.89778e-19)
(0.0980399 2.65999 0)
(0.0930568 2.65914 9.19367e-20)
(0.0437632 2.68459 -8.06126e-20)
(0.0299226 1.2968 0)
(0.00851444 1.22584 0)
(0.023404 1.31935 0)
(0.0462829 1.26513 0)
(-0.0148754 1.98731 -1.31333e-20)
(-0.0293866 2.60168 1.39403e-20)
(-0.013937 2.66414 2.39287e-20)
(-0.0188077 2.67544 0)
(-0.0372876 2.6066 -5.18529e-20)
(-0.0346342 2.60111 -3.02718e-20)
(-0.00063504 1.98945 1.04546e-20)
(-0.0269416 2.41253 -1.80369e-20)
(-0.0223419 2.42982 -2.84455e-20)
(1.01366 0.034849 4.99646e-19)
(1.00882 0.0179628 -6.21773e-19)
(1.00555 0.0413792 -5.03425e-19)
(0.98609 0.0224171 6.39106e-19)
(1.06233 0.00690381 0)
(1.04764 -0.00927382 0)
(1.09062 0.0293048 0)
(1.07158 0.010306 0)
(1.06927 -0.00107863 0)
(1.12971 0.070631 0)
(1.10472 0.036627 0)
(1.10843 0.0234208 0)
(-0.228208 2.53671 3.38223e-21)
(-0.191553 2.3793 0)
(-0.257812 2.4697 0)
(-0.0708097 2.57527 1.13461e-20)
(-0.0484109 2.58477 -6.35364e-22)
(0.0645723 1.86557 -6.60409e-20)
(0.000849249 1.75689 6.64895e-20)
(0.0778093 1.37701 0)
(0.0467443 1.38019 0)
(0.0338598 1.36531 0)
(0.0456834 1.16939 0)
(-0.00286253 1.01706 0)
(0.37585 1.47187 1.00755e-19)
(0.41929 1.47846 5.56355e-20)
(0.592141 2.44283 -1.00023e-19)
(0.406178 2.54139 2.93623e-19)
(0.350026 2.0785 2.98895e-20)
(1.02103 -0.00827074 0)
(1.01543 -0.00994089 0)
(1.01491 -0.0161154 0)
(1.00739 -0.00132241 0)
(1.00493 -0.00107522 0)
(1.00771 -0.00466674 0)
(1.00916 -0.0038348 0)
(1.01406 -0.00456856 0)
(1.02205 0.0161238 4.90977e-19)
(1.01833 0.0162549 -6.21123e-19)
(1.02238 0.0180894 -4.89547e-19)
(1.02002 0.0171286 6.14485e-19)
(0.770912 1.29909 0)
(0.708434 1.35348 9.15748e-20)
(0.872504 1.20997 3.01586e-20)
(0.933571 1.15056 -4.01198e-20)
(1.15746 2.60313 1.20413e-19)
(0.819966 0.0982022 2.46579e-19)
(1.14372 0.0995813 0)
(1.1924 0.186152 -2.09085e-19)
(1.18416 0.140845 -8.79151e-21)
(1.00423 0.135252 0)
(0.160292 2.96054 2.12064e-19)
(0.116076 2.86747 -5.48817e-19)
(0.0305718 2.37845 3.42848e-19)
(0.0960805 0.0206652 -1.45621e-19)
(0.335429 3.42426 -8.72331e-20)
(0.196202 3.32049 0)
(0.22721 3.35695 1.13526e-19)
(0.256357 3.04107 -6.99339e-19)
(0.360543 3.20173 0)
(0.0055877 3.12072 2.06693e-20)
(0.0155285 3.12937 -2.47857e-19)
(0.0140941 3.12527 3.635e-19)
(0.0355855 3.14028 0)
(0.0340182 3.15032 0)
(1.1907 2.6436 0)
(0.53715 0.84567 -2.12931e-19)
(1.05609 0.976992 8.76888e-21)
(0.962111 1.06699 0)
(0.806661 0.944276 -4.94227e-20)
(1.04323 0.879773 1.09017e-20)
(0.352499 0.413772 -3.89731e-19)
(0.701701 0.330595 -8.68296e-21)
(0.683331 0.248909 1.7679e-19)
(0.587339 0.400354 1.30709e-20)
(0.507333 0.359465 -5.27944e-19)
(0.672637 0.348259 0)
(0.709024 0.425005 2.97758e-19)
(0.715599 0.42173 0)
(0.624737 0.382216 0)
(0.606734 0.294925 0)
(0.785045 0.610578 1.7621e-19)
(1.19569 0.277675 -2.27388e-19)
(1.20267 0.411854 0)
(1.22594 0.352853 0)
(0.760533 0.197059 2.64163e-19)
(0.835031 0.53982 -1.63391e-19)
(0.74114 0.51593 2.89078e-19)
(0.938042 0.418076 -3.17775e-19)
(1.02016 0.014718 3.3304e-19)
(1.01823 0.0143297 -3.35466e-19)
(1.01596 0.0162649 0)
(1.03553 -0.00654326 0)
(1.02935 -0.00887484 -3.1448e-19)
(1.02717 -0.0128305 3.11998e-19)
(1.02514 0.00949939 0)
(1.02403 0.0128164 0)
(1.01121 0.0038867 0)
(1.01436 0.00880129 0)
(1.01468 0.0039666 0)
(1.01384 0.00294058 0)
(0.0615822 1.32398 0)
(0.0623598 1.28468 0)
(0.145209 1.33199 -9.04185e-21)
(0.267027 1.45551 3.2191e-20)
(0.151596 1.42579 6.8295e-20)
(0.189859 1.43801 -1.11427e-19)
(0.163177 1.36238 0)
(0.129193 1.58977 -3.08378e-20)
(0.107088 1.55459 0)
(0.352812 2.02784 -4.3193e-20)
(0.354779 2.37371 2.52941e-19)
(0.188111 1.43726 2.69657e-20)
(0.252544 1.36185 6.34411e-21)
(0.196259 1.34606 -5.10014e-21)
(0.258981 1.30692 -4.6547e-20)
(0.229388 1.57556 0)
(0.258298 1.60671 5.07391e-20)
(0.0310809 2.27738 -1.6503e-20)
(0.0375523 2.67597 0)
(0.0601208 2.41512 6.79488e-20)
(0.0532222 2.43888 0)
(0.0702635 2.67148 -1.02293e-19)
(0.0526808 2.70327 0)
(0.0243408 1.41198 -2.0129e-21)
(0.024423 1.45605 0)
(0.0280758 1.3785 0)
(0.0222719 1.3851 2.26612e-21)
(-0.00425085 2.65341 -1.07157e-20)
(0.0251176 2.69967 9.21032e-20)
(0.0115538 2.72136 6.8743e-22)
(-0.00167387 1.84758 1.09629e-20)
(-0.0126907 1.6639 5.60313e-21)
(0.0609302 1.27506 0)
(0.0439235 1.13532 0)
(0.0444905 1.56381 5.26662e-21)
(0.0229982 1.43893 3.5882e-21)
(0.0306507 1.50403 -4.40075e-21)
(0.0350392 1.58598 0)
(-0.0801621 2.36308 2.20723e-20)
(-0.097903 2.55465 -1.30702e-20)
(-0.0330013 2.48447 -3.41872e-21)
(-0.0178729 1.85367 -1.32182e-20)
(-0.0520721 2.49155 -6.38009e-21)
(-0.0228106 2.44117 3.24587e-20)
(1.02069 0.0208038 -3.30748e-19)
(1.01727 0.0258749 3.32244e-19)
(1.01531 0.0171975 0)
(1.01538 0.0652753 4.57812e-19)
(0.995417 0.0568597 -5.18401e-19)
(0.957501 0.042197 5.80681e-19)
(1.01723 0.0978298 -6.1906e-20)
(1.04154 -0.00652767 0)
(1.04952 -0.00254991 3.01354e-19)
(1.03795 -0.0108855 -3.00778e-19)
(1.07009 0.0390958 -1.77979e-20)
(1.0632 0.0203964 1.53604e-19)
(1.0632 0.0486993 0)
(1.05361 0.0429481 -5.50017e-20)
(1.03343 0.0382055 0)
(1.02705 0.0346016 0)
(1.02741 0.0131458 0)
(1.02442 0.0157976 0)
(1.03839 0.0304957 1.13112e-19)
(1.03932 0.0244246 -2.4941e-19)
(1.04988 0.0305478 -1.20583e-19)
(1.04702 0.0312125 -1.32513e-19)
(1.06577 0.0557107 2.59135e-19)
(1.09043 0.0434128 0)
(1.09933 0.0864314 0)
(-0.0611849 2.37825 3.49251e-20)
(-0.107366 2.31181 4.97826e-21)
(-0.0610431 2.27778 0)
(-0.122131 2.51495 -3.50421e-20)
(-0.198564 2.52429 -8.04667e-21)
(-0.162504 2.51901 -8.01451e-22)
(-0.0377619 2.61083 2.64381e-20)
(-0.0646939 2.55002 -1.94239e-21)
(-0.0399158 2.51718 8.06424e-21)
(-0.0449385 2.59896 -1.4129e-20)
(-0.0415079 2.60228 1.73323e-20)
(0.131777 1.61928 1.41344e-21)
(0.0700094 1.847 -3.38146e-20)
(0.359982 1.4127 -4.1439e-20)
(0.357792 1.36128 1.61119e-20)
(0.651077 1.4022 -8.85173e-20)
(0.517141 1.46758 -5.38329e-20)
(0.577426 1.4388 0)
(0.580861 2.41949 9.45868e-20)
(0.650069 2.41566 1.44777e-19)
(0.404921 2.51785 3.6337e-20)
(0.407626 2.55558 -2.56234e-19)
(0.522351 2.50769 2.49825e-19)
(0.542781 2.45816 0)
(0.479236 2.51313 -2.37317e-19)
(0.237253 2.5896 4.99678e-19)
(0.348212 2.57079 -3.31839e-20)
(0.282283 2.65165 -6.78105e-19)
(0.929051 2.37719 3.2155e-19)
(0.828842 2.38183 0)
(1.01087 0.000191669 1.07429e-20)
(1.01523 -0.00556491 -8.90404e-21)
(1.0176 -0.00353916 -1.60409e-19)
(1.01485 -0.00104633 1.62143e-19)
(1.01215 0.000904483 0)
(0.635289 1.26845 0)
(0.646459 1.16228 0)
(0.743139 1.06608 0)
(0.643592 1.12442 0)
(1.18467 2.61384 2.75253e-20)
(1.07433 2.36058 0)
(0.851648 2.18057 1.62867e-21)
(0.823958 2.4524 0)
(0.921669 2.54051 -1.72347e-19)
(0.959946 2.49914 1.11994e-19)
(0.822943 0.144635 0)
(0.798839 0.127349 6.73965e-20)
(0.925926 0.12821 3.91416e-19)
(0.840233 0.115218 -1.47154e-19)
(0.827626 0.0634703 -4.50356e-19)
(1.06594 0.220345 -3.93712e-19)
(0.991847 0.284749 -6.27894e-21)
(0.913538 0.267383 3.65747e-19)
(1.00263 0.205543 3.05451e-19)
(0.951021 0.165538 -5.2019e-19)
(0.92193 0.169895 6.49054e-20)
(0.946916 0.22645 -1.39656e-19)
(0.929307 0.193474 0)
(0.995583 0.166383 2.56564e-19)
(1.04611 0.170862 0)
(1.04263 0.200258 0)
(1.09249 0.107168 1.22463e-19)
(1.07789 0.162103 -5.72797e-21)
(1.06281 0.222952 -6.56575e-20)
(1.09665 0.191967 0)
(1.02248 0.0430789 2.56713e-19)
(1.04335 0.0536663 3.17319e-19)
(1.03326 0.0409101 -2.52094e-19)
(1.04282 0.0591161 -2.13148e-19)
(1.0165 0.0667114 -3.23826e-19)
(0.99307 0.139285 0)
(1.00391 0.0957929 0)
(0.975831 0.0647466 -2.06271e-19)
(0.927085 0.0804149 8.07753e-20)
(1.03966 0.0927381 2.95941e-19)
(1.07001 0.105138 -3.51222e-19)
(1.0771 0.137688 3.10683e-19)
(1.03197 0.134024 0)
(1.07268 0.0959289 0)
(1.05894 0.0774625 -1.42505e-19)
(1.04747 0.0879178 -2.41992e-19)
(0.579413 1.08418 5.97396e-20)
(0.622412 1.39572 -2.40596e-20)
(1.15969 2.74016 -9.61067e-20)
(1.23697 3.07578 -1.53692e-21)
(1.24922 2.712 -5.64095e-20)
(1.27929 2.71034 -3.41206e-20)
(1.16603 2.35298 8.11279e-21)
(1.22526 2.96991 -5.42453e-20)
(1.24689 2.93889 1.20032e-19)
(1.24288 3.23106 -8.07069e-20)
(1.36587 2.96812 9.30113e-20)
(1.30368 2.89213 0)
(0.544305 0.849291 -2.01668e-20)
(0.117283 1.2532 2.48918e-19)
(0.547663 0.468989 2.55053e-19)
(0.354615 0.211714 2.76137e-19)
(0.52573 0.405351 2.98828e-19)
(0.552527 0.478384 -4.89794e-19)
(0.541644 0.500411 4.0052e-19)
(0.491457 0.419541 -1.51986e-19)
(0.416219 0.349468 3.43356e-19)
(0.761885 0.253252 -1.50814e-19)
(0.721941 0.287483 0)
(0.715678 0.220476 3.82763e-21)
(0.724998 0.516588 1.56286e-19)
(0.699754 0.480133 -5.71922e-19)
(0.605061 0.487666 5.57163e-21)
(0.624469 0.469403 0)
(0.659048 0.740421 1.66543e-19)
(0.823978 0.776513 1.6263e-19)
(0.742538 0.859235 -1.89697e-19)
(0.858232 0.800824 -6.64167e-20)
(0.884896 0.832667 -1.74575e-20)
(0.892039 0.835681 1.79334e-20)
(0.832119 0.633792 -2.94056e-19)
(0.90185 0.706472 6.19063e-20)
(0.956205 0.710893 0)
(0.937329 0.677874 -8.90249e-20)
(1.01729 0.309389 9.2028e-20)
(1.10536 0.284116 1.32685e-19)
(1.05061 0.258076 1.57807e-19)
(1.00358 0.354525 -1.8573e-19)
(1.03798 0.421067 0)
(1.07879 0.401997 0)
(0.905466 0.344135 2.42243e-21)
(0.841478 0.283634 0)
(0.867074 0.277297 1.71024e-19)
(0.904632 0.275001 -3.88893e-21)
(0.927653 0.419958 8.85968e-19)
(0.884732 0.483514 2.30577e-19)
(0.887748 0.4467 -2.45349e-19)
(0.813001 0.433338 2.63167e-19)
(0.797837 0.433593 1.58442e-19)
(0.766187 0.419927 -1.5427e-19)
(1.02765 -0.000633117 2.63305e-19)
(1.01984 -0.000269934 0)
(1.01851 0.000617485 1.75342e-19)
(1.0212 -0.00234393 -3.95327e-19)
(1.0222 0.00405282 1.92466e-19)
(1.02054 0.0109289 -4.04994e-19)
(1.02163 0.0102593 0)
(1.02111 0.0103975 -8.3669e-20)
(1.01596 0.00767032 2.09569e-19)
(1.0169 0.0101819 -1.06061e-19)
(1.01762 0.00942979 7.8104e-20)
(0.0318661 1.30984 0)
(0.0405221 1.3491 0)
(0.0479048 1.30574 0)
(0.047407 1.26821 0)
(0.0668796 1.36294 1.79421e-21)
(0.0765833 1.33244 3.28912e-21)
(0.114271 1.48602 -1.16592e-20)
(0.0811836 1.33036 5.8357e-21)
(0.0310672 1.44166 -1.42028e-20)
(0.0347106 1.43168 1.09534e-20)
(0.062186 1.34539 -1.50602e-21)
(0.0575329 1.3465 6.92139e-22)
(0.0525283 1.32581 -8.95455e-23)
(0.0411163 1.34951 -1.19501e-21)
(0.105412 2.38732 -7.31943e-20)
(0.0898553 2.43269 0)
(0.166418 2.08176 4.70974e-20)
(0.108904 1.70949 1.88012e-20)
(0.233843 2.06675 -3.72468e-20)
(0.210516 2.45447 0)
(0.272734 2.40901 -2.43887e-19)
(0.306973 2.40804 1.72726e-19)
(0.223258 2.01998 -1.08773e-19)
(0.148866 2.18537 7.27899e-20)
(0.15417 2.30862 0)
(0.0046404 1.88443 -1.54561e-20)
(-0.0179981 2.40867 -4.21102e-20)
(-0.00291041 2.16683 0)
(0.00660407 2.46959 -6.07017e-21)
(0.0181212 2.31836 1.23719e-20)
(0.0205694 1.3969 2.15592e-23)
(0.0397515 1.37902 6.83864e-21)
(0.0526786 1.40748 -5.08777e-21)
(0.0141397 1.40104 1.00114e-21)
(0.0240482 1.4164 0)
(0.0553525 1.38803 0)
(0.0746365 1.19155 -1.74509e-20)
(0.118958 1.38364 4.57503e-21)
(0.100325 1.37993 0)
(0.0591551 1.24339 -9.08508e-21)
(0.0475504 1.02192 2.30107e-20)
(1.03949 0.00987136 0)
(1.04499 0.00645983 -2.80789e-20)
(1.03852 0.0198061 -2.01023e-19)
(1.0472 0.0185736 0)
(1.05097 0.0186328 0)
(1.03668 0.0103784 -2.73811e-21)
(1.03156 0.0099811 3.24126e-19)
(1.03183 0.0155357 3.9632e-19)
(1.02584 0.0195875 0)
(1.02368 0.0200403 0)
(1.03492 0.0237594 2.01568e-19)
(1.02682 0.0247849 0)
(1.02542 0.0244271 0)
(-0.0266875 2.05288 0)
(0.0455526 1.84174 6.30931e-21)
(0.0334149 1.9027 -8.3477e-21)
(0.0898954 1.40371 0)
(0.0882823 1.66671 -6.07058e-21)
(0.116851 1.53474 1.19333e-20)
(0.0953677 1.4497 0)
(0.386836 1.69202 0)
(0.362307 1.28411 -3.4582e-20)
(0.313138 1.34073 0)
(0.418706 1.2814 1.28222e-20)
(0.463775 1.44401 0)
(0.443685 1.38893 4.96754e-21)
(1.02845 2.68632 -6.8614e-21)
(0.954794 2.41203 -3.93009e-19)
(0.900959 2.18522 4.60527e-19)
(0.840195 2.37451 1.11169e-19)
(0.836433 2.50509 0)
(0.908288 2.49576 0)
(0.903581 2.37476 0)
(0.891055 2.35695 -4.05571e-19)
(0.688666 2.47 -1.66525e-19)
(0.797543 2.46659 -4.06992e-20)
(0.81008 2.43459 3.22411e-20)
(0.681943 2.39302 0)
(0.792665 2.38859 0)
(0.743475 2.40077 -1.55294e-19)
(0.765487 2.4987 0)
(0.615852 1.10106 0)
(0.483875 0.923117 -2.02993e-19)
(0.563471 0.950879 -1.31753e-20)
(0.52638 1.05447 0)
(0.528238 1.00541 3.07441e-19)
(0.766553 0.888307 -5.46678e-20)
(0.775075 1.00473 0)
(0.747145 0.949983 8.19916e-20)
(0.634361 1.041 0)
(0.642678 0.944891 0)
(1.16578 2.75453 -1.03269e-19)
(1.14238 2.82033 -4.70035e-20)
(0.938604 2.33479 5.4484e-20)
(0.899808 2.31428 -3.87279e-20)
(1.12869 2.72539 0)
(1.08113 2.69413 4.88215e-20)
(1.08705 2.47847 -1.38119e-19)
(0.981859 2.23004 -1.36735e-20)
(0.49931 1.36343 0)
(0.507897 1.07414 -5.23659e-20)
(0.55988 1.14164 0)
(0.864893 0.212733 0)
(0.80366 0.169485 0)
(0.756097 0.143989 0)
(0.857352 0.221567 -2.70311e-19)
(0.779519 0.215993 1.58798e-19)
(0.938131 0.0666828 -1.67908e-19)
(0.951976 0.111184 0)
(0.928946 0.11516 7.23045e-20)
(0.867932 0.0920143 2.90916e-19)
(0.855162 0.0540477 -1.82374e-19)
(1.17338 3.36643 -3.10822e-19)
(1.22506 3.28739 0)
(1.13891 3.38501 -6.10585e-19)
(0.638207 3.54368 5.33829e-19)
(0.850396 3.10989 2.59845e-20)
(0.506975 0.855493 2.47597e-19)
(0.416928 0.847836 0)
(0.326072 0.514517 -6.19075e-20)
(0.447409 0.685811 3.48496e-19)
(0.542257 0.482066 -8.66968e-20)
(0.514989 0.529899 9.72146e-20)
(0.648578 0.539026 2.13636e-19)
(0.68283 0.551349 0)
(0.639946 0.618873 0)
(0.595067 0.55401 0)
(0.955322 0.592534 4.5587e-20)
(0.885841 0.531318 -2.22576e-19)
(0.907815 0.562794 1.73644e-19)
(0.942227 0.502525 -1.73637e-19)
(1.04934 0.476791 0)
(1.0439 0.558225 -4.44309e-20)
(0.837248 0.3871 -3.59966e-19)
(0.84284 0.37282 -4.36791e-19)
(0.791052 0.381469 2.79251e-19)
(0.787558 0.356336 -2.85417e-19)
(0.839464 0.310648 -2.23352e-19)
(0.790947 0.309602 2.7497e-19)
(1.02669 0.00532489 -2.05687e-19)
(1.02636 0.00580014 4.26316e-19)
(1.02885 -0.000959032 2.54874e-19)
(1.03316 0.000767613 -3.10977e-19)
(1.03258 0.00692733 0)
(1.02995 0.00791586 -5.09678e-19)
(0.0540085 1.6356 1.07524e-20)
(0.0394451 1.56215 0)
(0.0818448 1.685 7.40194e-20)
(0.0919844 1.66905 -6.57747e-20)
(0.0823323 1.50489 2.17807e-20)
(0.0796086 1.49213 0)
(0.0134783 1.71508 0)
(0.0275966 1.55145 -1.92908e-21)
(0.0676238 1.48521 1.73307e-21)
(0.0456175 1.64382 8.23918e-21)
(0.00963194 1.92481 -2.92525e-21)
(-0.0101704 1.94593 5.17033e-21)
(0.498583 1.37632 -1.09248e-19)
(0.494669 1.38602 1.17791e-19)
(0.442995 1.28011 -1.63006e-20)
(0.436927 1.29238 3.25581e-21)
(0.624561 1.28707 0)
(0.541236 1.37497 3.72894e-20)
(0.560606 1.38598 -3.61912e-20)
(0.451118 1.26854 1.57885e-20)
(0.508959 1.2244 0)
(0.556255 1.18858 0)
(0.650885 2.42841 2.49934e-19)
(0.667283 2.46892 5.19265e-19)
(0.710487 2.48425 -3.55887e-19)
(0.610574 2.47071 -8.47227e-20)
(0.564185 2.5553 1.20116e-19)
(0.524396 2.53711 -3.10738e-19)
(0.972735 2.37388 -2.56458e-19)
(1.00973 2.38624 0)
(0.915764 2.16524 -2.98671e-19)
(1.0508 2.67523 0)
(1.05351 2.66184 0)
(0.605296 2.2557 -6.53705e-20)
(1.02886 3.15821 5.08183e-20)
(0.895887 3.01883 4.86335e-21)
(0.287799 0.915721 0)
(0.32561 0.759184 -1.30959e-19)
(0.464227 0.725017 -1.29611e-19)
(0.400326 1.98396 0)
(0.479495 2.7872 -1.83967e-20)
(0.434666 2.57051 0)
(0.6712 0.677337 -3.51566e-19)
(0.754698 0.685635 4.75374e-19)
(0.781835 0.620875 -4.67294e-19)
(0.662383 0.642347 -4.56047e-20)
(0.711877 0.598126 -1.87851e-19)
(1.01442 2.76388 -3.83799e-20)
(1.04621 2.83268 -4.70525e-20)
(0.654941 2.13832 2.85083e-19)
(0.583758 1.71742 -1.97811e-19)
(0.710415 1.90767 -1.70975e-19)
(0.995513 2.46883 -4.53546e-20)
(0.996427 2.45621 1.04466e-19)
(0.667159 1.87385 9.53259e-21)
(0.459623 1.33822 6.16281e-20)
)
;

boundaryField
{
    wall-4
    {
        type            noSlip;
    }
    velocity-inlet-5
    {
        type            fixedValue;
        value           uniform (1 0 0);
    }
    velocity-inlet-6
    {
        type            fixedValue;
        value           uniform (0 3 0);
    }
    pressure-outlet-7
    {
        type            zeroGradient;
    }
    wall-8
    {
        type            noSlip;
    }
    frontAndBackPlanes
    {
        type            empty;
    }
}


// ************************************************************************* //
