/*--------------------------------*- C++ -*----------------------------------*\
| =========                 |                                                 |
| \\      /  F ield         | OpenFOAM: The Open Source CFD Toolbox           |
|  \\    /   O peration     | Version:  4.0                                   |
|   \\  /    A nd           | Web:      www.OpenFOAM.org                      |
|    \\/     M anipulation  |                                                 |
\*---------------------------------------------------------------------------*/
FoamFile
{
    version     2.0;
    format      ascii;
    class       volScalarField;
    location    "46";
    object      p;
}
// * * * * * * * * * * * * * * * * * * * * * * * * * * * * * * * * * * * * * //

dimensions      [0 2 -2 0 0 0 0];

internalField   nonuniform List<scalar> 
918
(
0.569734
1.21473
-1.47463e-05
0.568993
-0.0115655
1.18236
-0.486176
0.715643
0.549613
-0.08137
-0.0115254
0.5465
1.04304
0.808572
-1.10375
-0.00348899
0.668491
-0.373347
0.54901
-0.0257938
0.749605
0.556055
0.559078
0.549469
0.616591
0.789752
0.923567
0.0278422
0.00343449
-0.00104383
-0.0107451
-0.0422653
-0.033189
1.06574
1.11635
1.13892
0.518009
0.357008
-0.338228
-0.417617
-0.409397
-0.529783
0.710607
0.7088
-0.1791
0.718899
0.724599
0.53714
0.548954
0.549901
0.550971
0.549931
0.551352
0.427335
-0.0847016
-0.119473
-0.0611475
-0.0506374
0.0785239
-0.012238
-0.013902
-0.00995925
-0.00951249
0.46756
0.541623
0.538811
0.551467
0.561243
1.15346
1.12452
1.15011
1.06704
1.08192
1.02074
0.992753
0.829649
0.851071
0.794356
0.782626
-1.52174
-2.47844
-0.519881
-0.268148
-0.0107658
0.00566714
0.0178663
0.662519
0.661614
0.669789
0.680106
1.107
-0.341884
-0.491877
0.548819
0.547802
0.555905
0.556265
0.553431
0.551511
-0.02207
-0.0207032
-0.0269836
-0.028059
-0.0283488
0.738052
0.736756
0.551146
0.547738
0.566222
0.585803
0.579642
0.296217
0.61869
0.630348
0.611791
0.780096
0.774124
0.782665
0.897965
0.861446
0.961171
0.984375
0.0163314
0.00147429
-0.00980176
-0.0163978
-0.0134969
0.513916
0.505833
0.533135
0.521423
0.523884
0.273678
0.140684
0.450396
0.478734
-0.254677
-0.326081
-0.404873
-0.437065
-0.535108
0.641753
0.700285
0.698445
-0.186367
-0.123066
-0.25133
-0.0400382
-0.106443
0.527426
0.53444
0.528781
0.544505
0.539218
0.540819
0.553273
0.550339
0.55186
0.487508
0.590268
0.358837
0.319554
-0.229245
-0.132257
-0.226074
-0.0376279
-0.0318294
0.0936442
0.120111
0.0669329
0.059563
-0.026452
-0.0186267
-0.0223989
-0.00876662
-0.012703
0.46202
0.451809
0.481191
0.488449
0.531744
0.532772
0.536067
0.534547
0.943091
0.965449
0.974019
0.947764
-3.49136
-6.54297
0.0550378
0.195504
-0.00530289
-0.0091631
0.00386327
-0.00229199
0.00145673
-0.00031576
0.0166887
0.0145204
0.0198504
0.0232508
0.652707
0.652811
1.0126
1.00788
0.97475
0.917743
0.537071
0.539174
0.544651
0.540165
-0.0133658
-0.0177002
-0.0161047
0.726729
0.733195
0.731082
0.25888
0.172147
0.347019
0.375819
0.645602
0.634639
0.643644
0.672655
0.708315
0.990735
1.00868
1.00885
1.01695
1.06214
1.07514
1.04082
0.494033
0.503625
0.499136
0.53626
0.533999
0.534877
0.530678
0.531947
0.529404
-0.0287752
-0.388556
0.54008
0.554137
0.536108
0.540699
0.713011
0.780267
0.680883
0.690352
0.688781
0.027769
-0.0338245
0.274938
0.241819
0.40223
0.438361
0.415283
0.914033
0.875977
0.926001
0.898968
0.859536
0.884934
-0.427355
-1.66358
-0.926038
0.554282
0.363056
0.451693
0.0401129
0.0181855
0.024898
0.996003
1.08559
0.637978
0.825997
0.873962
0.747744
0.778171
0.834765
0.759727
0.793732
0.827625
0.808834
0.599286
0.553901
0.557874
0.8428
0.896622
0.149996
0.0965036
0.0405065
0.137708
0.19186
0.166627
1.03407
0.950676
1.02312
0.547352
0.547966
0.00553494
0.00316527
0.55218
0.552379
-0.00579426
0.00531551
0.438712
-0.797497
0.12332
0.540339
0.530569
0.547561
-0.0704899
0.389627
-0.0111896
0.0799726
0.0173618
0.543417
0.478464
0.439913
0.000660639
-0.00737982
-0.0209907
-0.212062
0.544865
0.543017
0.547077
0.548119
0.548758
-0.0161633
-0.00321454
-0.0058197
-0.0222665
-0.0204829
-0.0271451
0.512057
0.529863
-0.153451
0.547203
0.549411
0.549222
0.542107
0.547954
0.545886
0.00306975
-0.00637376
-0.0115754
0.246105
0.372378
0.679947
0.778287
0.652115
0.418145
0.165692
0.584668
0.647758
0.555779
0.706636
0.694054
0.713134
0.195836
0.0338249
0.197344
0.137373
0.538534
0.53695
0.528967
0.525918
0.542529
0.540713
0.54511
0.542073
0.544974
0.546413
-0.0228856
-0.050291
-0.0622813
-0.137308
0.345215
0.612559
0.281168
0.322353
0.164213
-0.00931468
-0.00765787
-0.00996682
-0.0181173
0.0359837
0.00150256
0.0760826
0.0738106
0.0410759
0.0125313
0.025447
0.00712584
0.0128235
0.536714
0.535185
0.541469
0.550153
0.487967
0.491649
0.457232
0.477638
0.462649
0.404868
0.439383
0.414621
0.00171054
0.00429081
-0.00128678
-0.00320013
0.00243241
-0.00534051
-0.0108574
-0.0108887
-0.0060084
-0.012054
-0.0161617
-0.0180192
-0.167433
-0.278112
1.00949
0.940382
0.135088
0.533846
0.540431
0.537044
0.542075
0.54513
0.545978
0.543736
0.540303
0.530403
0.532128
0.528722
0.529412
-0.0817623
-0.228039
-0.0607042
-0.126185
0.148199
0.635281
0.383466
0.31079
0.31155
0.540765
0.958979
0.719282
0.701167
0.735214
-0.339683
0.0310947
-0.280198
0.310702
0.136398
0.680062
0.731084
0.75446
0.699914
0.653087
-0.229605
0.559932
-0.0472865
-8.87239e-05
0.206518
0.0918307
0.716558
0.678029
0.683075
0.701954
0.721579
0.681598
0.665555
0.662332
0.697775
0.70213
0.510335
0.27932
0.223673
0.190953
0.661795
0.547295
0.599595
0.51298
0.533474
0.53621
0.534759
0.516874
0.524326
0.519911
0.526107
0.529381
0.538504
0.539087
0.534091
0.53635
-0.0220076
-0.0270026
0.00220912
-0.119381
-0.108219
-0.192256
-0.033278
0.0866302
0.0547854
0.251729
0.332329
0.0614782
-0.0334996
-0.00710047
0.0163052
0.187327
0.245054
0.102903
0.182861
0.180492
0.159863
0.276053
0.272229
0.00456544
-0.000817116
-0.00190594
-0.00313908
0.0483012
0.11644
0.133509
0.0238477
0.0196345
-0.0033629
-0.0046303
0.00468094
0.000529863
0.00441665
0.0405628
-0.0625727
-0.00755014
0.0129629
0.0293493
0.0233303
0.011503
0.529502
0.531601
0.531406
0.539412
0.557036
0.573304
0.529739
0.510379
0.501019
0.503829
0.477331
0.487884
0.483182
0.496177
0.517278
0.526403
0.524354
0.527104
0.509987
0.511677
0.498585
0.501857
0.478584
0.459376
0.447194
-0.0129664
0.0135889
0.0276521
-0.0235437
0.00405915
-0.0090429
0.0130092
0.0333825
0.0176963
0.00892921
0.000336094
-0.0068882
-0.000958296
-0.0632666
0.0254935
-0.168428
-0.206042
-0.281325
0.911346
1.01809
0.832869
0.599237
0.613074
0.860714
0.94314
0.570441
0.743612
0.772278
0.615249
0.857198
0.538921
0.53847
0.536011
0.535531
0.536867
0.00959443
0.117071
0.1142
0.180876
0.293873
0.415763
0.324655
0.1962
0.327209
0.317195
0.626607
0.642496
0.599127
0.621703
0.623914
0.443805
0.519129
0.572673
0.531044
0.57796
0.596683
0.556954
0.585409
0.539217
0.492209
0.491614
0.441446
0.454019
0.432864
0.416842
0.529031
0.505534
0.51625
0.506458
0.52755
0.550285
0.545055
0.580158
0.591177
0.511521
0.468342
0.475563
0.508478
0.468917
0.484039
0.498893
0.243404
0.17227
0.211718
-0.0788497
0.00465724
-0.0711374
-0.102731
0.0151202
0.314378
-0.42417
-0.485949
-1.04052
0.505504
1.03078
0.66974
0.613543
0.719109
0.698044
0.700753
0.72785
0.728606
0.653492
0.669621
0.675828
0.63171
0.653718
0.683055
0.677521
0.544685
0.395443
0.388726
0.347831
0.223324
0.262836
0.464119
0.378679
0.30433
0.318712
0.479844
0.372466
0.438489
0.466004
0.386571
0.359094
0.554399
0.625042
0.614168
0.587253
0.508119
0.520554
0.549125
0.583019
0.607849
0.643947
0.525526
0.531518
0.532771
0.530246
0.527448
0.530364
0.530579
0.53319
0.53392
0.537037
0.536
-0.0147986
-0.00335023
-0.0150462
-0.0246121
0.00486611
0.00185782
0.0508699
0.0352545
0.0169244
0.0232796
-0.00226467
-0.00254686
9.56765e-05
0.00760301
0.129212
0.129529
0.110203
0.0783868
0.256235
0.394057
0.458032
0.336657
0.246302
0.27194
0.284433
0.0122133
0.0394617
0.0293962
0.0648342
0.0619026
-0.00492684
-0.00820249
-0.00672856
-0.00130463
0.0110131
-0.00782631
-0.0139489
-0.00385791
-0.00760162
-0.00900391
-0.0154551
0.512957
0.506628
0.506993
0.501673
0.500744
0.513657
0.518002
0.520487
0.525853
0.527743
0.518473
0.523656
0.527218
0.012264
-0.0164407
-0.0255535
-0.00108948
-0.0103133
-0.00616295
-0.00524772
0.137533
0.0673366
0.0641383
0.022707
-0.108588
-0.0512836
0.508374
0.509773
0.513813
0.733508
0.586742
0.51227
0.61498
0.713909
0.285503
0.478258
0.314037
0.898246
0.788761
0.934682
0.542486
0.250348
0.413062
0.469814
0.260586
0.338224
0.333719
0.233441
0.262354
0.288369
0.392581
0.283598
0.267343
0.0180008
0.212845
0.328269
0.314853
0.440218
0.507579
0.265902
0.193459
0.161198
0.618793
0.636644
0.655543
0.626786
0.649207
0.589627
0.577445
0.596375
0.605453
0.601002
-0.766417
-0.475235
-1.3888
-0.680321
-0.238748
0.537663
0.504796
0.779144
0.661325
0.713048
0.698585
0.666952
0.632281
0.647874
0.677002
0.375709
0.48151
0.458549
0.461043
0.35379
0.297313
0.594387
0.586537
0.625407
0.648057
0.61597
0.649332
0.523393
0.523072
0.522637
0.519218
0.517492
0.519623
0.0862742
0.053333
0.0980458
0.0774713
0.0530659
0.0371591
0.023761
0.0131798
-0.000337381
-0.00309606
0.016562
0.022629
0.171606
0.109807
0.0392303
0.066223
0.00645151
-0.0630591
-0.0817208
0.0218292
0.115838
0.116791
0.422288
0.661388
0.481081
0.650927
0.51648
0.547934
0.503758
0.498869
0.525322
0.410503
0.484487
0.304889
-0.232851
-0.112252
0.764158
0.823871
0.598722
0.473605
0.182597
0.307052
0.569565
0.493175
0.534816
0.607309
0.596688
0.0281939
0.0536733
0.39645
0.598321
0.256169
0.189024
0.20574
0.37009
0.323569
)
;

boundaryField
{
    wall-4
    {
        type            zeroGradient;
    }
    velocity-inlet-5
    {
        type            zeroGradient;
    }
    velocity-inlet-6
    {
        type            zeroGradient;
    }
    pressure-outlet-7
    {
        type            fixedValue;
        value           uniform 0;
    }
    wall-8
    {
        type            zeroGradient;
    }
    frontAndBackPlanes
    {
        type            empty;
    }
}


// ************************************************************************* //
