/*--------------------------------*- C++ -*----------------------------------*\
| =========                 |                                                 |
| \\      /  F ield         | OpenFOAM: The Open Source CFD Toolbox           |
|  \\    /   O peration     | Version:  4.0                                   |
|   \\  /    A nd           | Web:      www.OpenFOAM.org                      |
|    \\/     M anipulation  |                                                 |
\*---------------------------------------------------------------------------*/
FoamFile
{
    version     2.0;
    format      ascii;
    class       surfaceScalarField;
    location    "46";
    object      phi;
}
// * * * * * * * * * * * * * * * * * * * * * * * * * * * * * * * * * * * * * //

dimensions      [0 3 -1 0 0 0 0];

internalField   nonuniform List<scalar> 
1300
(
3.75095
5.62643
-3.18579
3.75095
-7.7225
5.62643
-4.37956
4.37956
-0.729378
0.729378
1.87646
1.87449
-2.95263
2.95263
-2.43697
2.43697
-2.5428
2.5428
-5.2465
5.2465
-5.06883
5.06883
4.65801
-4.65801
-6.25868
6.25868
-1.07179
1.07179
-3.84809
3.84809
3.16874
-3.16874
-2.26144
2.26144
-0.161417
0.161417
-0.553133
4.30409
3.19782
3.19782
-2.01366
2.01366
-4.86659
4.86659
6.21764
-6.21764
5.20207
-5.20207
-2.01628
-2.37161
1.82305
-11.5951
-5.89945
-5.89945
-8.44021
8.44021
-2.81378
2.81265
2.9451
-2.9451
-1.86678
1.86678
-4.29691
-0.0826444
-4.29691
4.38795
-0.0083961
4.38795
-0.809629
0.080251
-0.809629
3.93973
-3.93973
0.615514
0.113864
0.615514
3.0652
-3.0652
-1.87717
3.75364
1.87378
-1.87178
6.17587
-1.87917
3.75366
-5.97018
5.97018
-3.16381
0.211177
-3.16381
2.77063
0.181996
2.77063
-6.80302
6.80302
-2.49015
0.0531815
-2.49015
2.40057
0.0364031
2.40057
2.87166
-2.87166
-2.64881
0.106008
-2.64881
2.42922
0.113575
2.42922
0.353667
5.27276
-5.9801
8.79274
-5.27276
0.0262658
5.2083
0.038198
5.2083
-5.10585
0.0370241
-5.10585
5.01172
0.0571014
5.01172
4.7327
-0.0746988
4.7327
-4.78424
0.126235
-4.78424
-3.39583
-4.06356
-6.4131
0.154423
-6.4131
-1.10968
0.0378899
-1.10968
1.01687
0.054919
1.01687
-3.649
3.649
-4.15678
0.308695
-4.15678
3.12258
0.0461559
3.12258
1.86902
1.88193
5.61998
-5.61998
2.45124
-2.26268
0.00123582
-2.26268
-2.27113
-2.93093
2.27113
-0.00969396
-0.393321
0.231904
-0.393321
3.16012
0.0376959
3.16012
2.27313
0.156093
-2.27313
0.25947
3.24772
-3.24772
1.3456
0.668064
1.3456
-5.56651
5.56651
4.95471
0.0570171
-4.95471
0.0881192
6.15666
0.0609812
6.15666
-6.1998
-0.0178394
-6.1998
2.62427
-4.99588
-2.55517
6.07791
0.180772
-6.07791
0.178457
2.91582
0.0292782
2.91582
-2.91868
2.91868
-2.98423
0.0391239
-2.98423
-2.24843
0.38165
-2.24843
1.58282
0.283961
1.58282
-4.18331
-0.113599
-4.18331
-4.304
0.147214
4.304
0.0839554
1.18665
-1.18665
-0.91254
0.102911
-0.91254
-4.0555
-0.127812
4.0555
-0.115769
-3.81657
-0.123163
-3.81657
-3.02418
0.039956
3.02418
0.0410189
3.11321
0.0469162
-3.11321
0.048007
-1.87089
3.75282
-1.88006
3.75384
-5.59551
-0.374667
-5.59551
6.27999
-0.309807
6.27999
3.52238
0.325706
-3.52238
0.358577
2.63796
0.132678
2.63796
-6.76575
-0.0372721
-6.76575
6.78653
0.0164843
6.78653
2.54438
0.0935795
-2.54438
0.0542258
2.34189
0.058679
2.34189
2.89192
-0.0202537
2.89192
-2.86943
-0.00222758
-2.86943
2.79614
-2.79614
2.7269
0.0692425
-2.7269
0.0780959
-11.1329
11.1151
-0.0353179
-11.0976
5.17298
5.17298
4.14812
0.584589
4.14812
-4.9996
0.215361
-4.9996
2.72474
-5.27991
3.06312
-6.45895
4.68708
-16.2821
4.33139
-8.39495
6.65398
-6.65398
6.54456
0.109421
-6.54456
0.131455
-1.18706
0.077381
-1.18706
-3.05026
-0.598733
-3.05026
4.29493
-0.645937
4.29493
-3.02759
3.02759
-3.07662
0.0490226
3.07662
0.0459652
2.28626
0.055622
-2.28626
0.0235875
0.505549
0.109965
-0.505549
0.112228
3.4406
-0.192887
3.4406
-3.05838
-0.189337
-3.05838
-1.26745
0.080395
1.26745
0.0781426
-5.81636
0.249843
-5.81636
-11.1908
0.0931391
-11.1526
-6.10666
-6.10666
2.33355
11.1263
-2.89007
0.0206357
2.89007
0.0257544
2.97415
0.0534445
-2.97415
0.0554698
-2.85971
0.0635623
2.85971
0.0589727
-2.63081
0.38238
-2.63081
-1.17467
1.17467
-1.34714
0.172464
1.34714
0.235681
1.42267
-0.236018
1.42267
0.972416
0.044454
-0.972416
0.059876
-3.71964
-0.0969265
-3.71964
6.5136
-0.233613
6.5136
-2.94914
-0.109238
2.94914
-0.0572279
-0.0333731
11.1485
-5.13961
0.033758
5.13961
-11.2095
11.2432
-3.25667
0.625866
3.25667
0.891443
5.29006
0.27645
-5.29006
0.29046
6.73669
0.0498487
-6.73669
0.0827076
-2.56839
-0.48187
-2.56839
-5.03086
-0.564653
5.03086
-0.735926
-11.4738
-0.203853
11.6776
-11.4167
6.02021
0.136447
-6.02021
11.3797
-1.11
-0.076655
1.11
0.0646718
1.72505
-0.302374
1.72505
3.62264
-0.182033
-3.62264
-0.0970057
-6.66982
-0.0959241
6.66982
-0.156223
-2.12538
-0.443011
2.12538
-0.400335
-4.26691
4.30461
1.90896
-2.46364
-2.53223
-5.39458
1.85152
1.9013
4.30276
-10.2047
-6.07742
-10.0263
7.25632
-6.96585
-9.26257
9.18787
7.75099
-7.87415
-5.78697
5.83293
6.4828
-6.44178
1.87877
1.87487
7.9013
-7.69013
-15.628
15.2533
7.44435
-7.39117
15.7755
-15.8128
-17.8762
17.9261
-5.70761
5.81362
-6.73209
6.72986
-6.95291
6.89569
-2.87569
-3.58325
13.177
-13.0226
8.43771
-8.43647
-8.57884
8.88753
3.38198
0.922623
3.4289
-1.8823
3.76107
-1.87136
3.78032
2.67503
-5.55073
2.60488
-5.13712
4.21168
4.22603
-4.20198
-1.1926
-5.92053
5.9498
-5.82018
5.87915
9.01276
-9.09541
-1.8852
3.76007
-1.86864
3.76994
-3.4265
-2.36047
3.38034
0.922413
8.11563
5.0614
-8.2964
-1.72987
-7.99377
7.81173
-8.18935
8.00001
-0.43382
5.81704
-5.38322
4.43277
-1.559
7.37604
5.69731
5.91267
5.86224
-5.58579
1.10361
-6.48683
-6.39871
-2.42403
2.52694
2.35897
-2.2451
6.02714
1.72385
5.91137
-5.71522
-2.15893
-5.81215
3.82168
2.01126
3.8707
4.07702
2.40578
4.11698
3.03055
-3.03563
0.00508031
-3.05633
6.08688
0.724445
-5.4168
-4.49438
4.93426
2.96705
5.11625
-5.48705
-2.20307
-5.12848
-9.53415
-6.0938
-10.0988
10.0973
5.15594
9.78754
-11.9725
11.8162
4.75422
2.69013
4.79062
-4.87882
-2.51235
-4.82459
11.6124
-2.60224
-9.01019
-10.3324
-7.54382
10.3159
5.45957
10.9847
6.94139
11.0674
4.42934
7.18308
-9.88892
2.34509
-3.86507
-1.84254
-3.78697
3.68166
2.13196
3.79523
-4.21459
-2.5175
-4.19395
-4.28912
-2.66379
4.30937
2.42048
-4.4053
-3.78405
4.51454
2.38114
4.04619
-10.1236
4.34876
-7.93201
-9.2337
-3.78892
-9.10224
3.46911
2.61869
-6.08779
-2.08162
8.41133
-4.1853
7.21873
-5.14073
-3.29574
-5.11714
-6.8139
-1.76494
-6.66668
-8.85344
8.37157
-9.17532
8.52939
12.5839
-5.67689
-6.90702
-3.96851
-2.47326
3.92051
-0.491607
-3.71067
3.71575
0.0503995
3.83072
4.75334
4.26173
-3.88731
-1.93287
-3.83184
3.83047
2.04868
3.89403
6.78161
2.23115
6.77322
-6.51329
-2.58211
-6.62689
9.03594
-8.65429
2.9016
-2.8212
5.36472
2.63529
-5.17184
-2.82193
6.2008
-3.20205
-2.99875
-12.2128
10.5733
1.63955
-4.83679
-0.40402
-0.242603
-5.48571
-3.77686
5.35948
0.553197
11.1265
7.34961
-5.51085
5.76069
6.16679
6.22381
-0.174898
5.77179
-5.14593
5.31838
-2.49326
-2.82512
5.37894
-5.50676
-1.24795
-5.38514
4.13719
0.404617
1.62621
-1.39431
-1.87967
-0.544357
-1.81979
1.41894
0.94003
1.5289
0.924467
1.60247
-2.9383
0.562383
2.37592
-2.01383
-1.68272
-3.71903
-1.15013
4.86916
5.73131
2.08042
-5.63431
-0.177841
2.61114
-2.55622
-0.724733
-2.9943
2.20887
-2.93361
-3.68083
-1.95612
5.63695
-3.37098
-0.460855
3.31754
0.55316
-3.82587
-2.09466
3.78674
0.330233
-3.12595
6.18864
-3.06269
-5.05882
2.52851
3.55836
4.53977
-4.78899
2.44651
2.34247
-1.23062
4.21718
0.89907
4.34986
-6.78391
4.58084
5.75481
3.13272
-6.08052
0.952037
-5.83187
8.47099
-7.2816
-1.18939
4.12116
4.34983
7.1217
5.4622
-5.72937
12.8511
-1.17576
-6.10584
7.00763
-3.87491
4.76522
-8.64013
-10.2274
4.12158
-9.17328
10.9331
-1.75979
-3.62946
-8.34299
12.8027
-1.21093
-11.5918
8.5766
-4.17357
-4.26753
8.4411
-6.77581
6.77988
-1.9598
-4.82008
-10.1099
-5.70282
10.2059
1.61037
-9.83876
12.1839
-2.65568
4.06461
0.726011
4.12329
3.24252
-5.41208
2.16957
3.53329
-5.49309
2.06725
-7.47934
-6.73982
12.1054
-5.36557
-10.5287
-9.52685
-1.00188
2.53755
9.6463
-9.47894
7.45229
2.02666
3.3068
0.587228
-3.37604
-0.41093
0.236733
4.53396
-4.77069
4.03197
4.18806
3.32701
1.20694
3.84247
2.10734
-3.86822
-0.325729
-4.1559
1.49211
-1.73542
-3.68436
5.17647
-4.06949
0.385127
-2.74106
-3.50372
6.24478
-4.5836
3.03655
3.15209
5.08524
-4.91259
1.40887
-2.39806
-2.51454
2.66062
-4.39603
1.98035
3.19612
4.36149
0.577446
5.88881
6.21659
-8.50749
0.575482
11.278
-9.54812
2.45951
8.60787
-9.9118
0.38495
-8.71729
1.02005
-5.20535
-5.06774
5.09169
-6.85663
-3.54844
6.15546
0.617754
-6.23942
-0.427264
-6.03196
-2.82148
-6.47497
-3.04414
-6.13119
-8.77351
-1.64165
-7.13186
6.72992
-6.67591
-3.42289
7.41183
1.11755
-7.3985
7.32185
-7.48318
7.18081
0.095205
3.62055
4.35694
1.88367
-2.38992
4.2736
-5.09041
7.32156
-8.60939
3.51899
4.07571
-6.65782
-4.53369
5.03195
4.00399
5.31591
8.91167
-10.3962
1.48452
-10.7174
12.0315
-1.31408
-16.4779
5.7605
-7.56628
2.556
0.345595
2.63338
0.584609
2.4975
-3.08211
-2.23659
-2.15845
-2.39533
-3.44695
5.84228
1.11775
-3.48429
2.36654
-3.55809
4.67584
-0.141777
-3.34251
5.2998
-2.8023
5.6454
-3.69987
1.94553
3.39849
5.73784
-2.33935
4.37841
-1.74312
1.89047
-4.22982
-1.55648
-2.96261
5.09456
-3.28218
3.6673
-0.323874
3.99118
-4.08646
0.884412
-0.759446
3.42861
3.68808
4.29271
-3.08577
2.93586
-4.67898
-1.29397
-4.10153
-0.905406
-0.27999
-3.76067
4.04066
6.03122
-6.31121
-5.22146
9.53704
-4.31558
7.72157
-5.38303
-2.33854
-4.24392
-4.41036
3.86154
1.91025
9.63182
0.237718
-5.62075
-4.90821
-4.01677
3.16897
2.14941
-1.85109
3.49064
2.09369
-0.467482
0.504957
1.02395
1.83884
-1.33388
0.258132
1.58071
-1.13617
1.87115
0.739992
-1.9156
0.0958062
-1.29843
3.50731
1.07748
-2.01752
0.683631
1.01284
-3.50609
4.99715
-2.6318
-2.36535
6.00998
1.11205
-3.74385
4.27309
-3.86848
2.33444
-3.48457
-1.40941
-5.27788
-3.55403
-2.54825
4.91479
-3.29403
5.37445
1.23397
-5.19661
6.43058
-3.64195
1.68583
-3.09447
3.83446
-1.03389
-2.06058
2.86424
2.77271
-2.98854
-0.00576107
-0.124298
2.37222
-2.49652
-0.561386
-2.57522
-4.57357
4.90381
-2.1058
4.55231
2.1678
-1.91573
6.46804
1.81009
-3.72582
-3.24873
-3.70958
-1.38335
3.15642
-0.592905
-4.23169
-5.41298
4.13811
0.211752
-6.91648
7.728
-0.811518
-3.94943
-0.631405
4.75256
-5.97234
0.479248
-3.90508
3.82291
4.72198
4.93374
-11.3854
-0.206458
-6.22941
1.1547
-7.38412
5.50454
-3.60023
7.72181
-10.3684
6.9455
-9.25084
6.53242
-0.851702
6.2434
-4.07384
2.76679
-8.46961
-6.85923
5.40955
-2.71942
6.13556
-3.066
9.20157
-5.72168
5.16543
4.03613
-0.962392
-4.15475
-5.18959
4.2272
-0.0241588
4.09913
4.97474
-2.86741
4.64901
2.26452
-4.66257
-2.13152
-6.49918
1.83661
-3.34709
-1.91785
3.75446
3.16738
3.75461
1.23992
-3.34368
7.15073
-8.15261
-1.78516
-3.28259
5.1687
-0.941503
3.33239
-6.61497
-1.87296
4.8646
-0.839814
-4.02478
0.812287
-4.36073
1.67535
-6.03608
5.18128
-5.60854
2.19389
-9.76017
-5.20461
-5.13994
-2.2372
-5.24598
-7.60035
5.36315
-1.83985
5.482
-8.55156
7.71175
-3.47996
8.84311
-5.43875
-1.03622
5.83908
1.34173
10.1848
0.198164
-4.73185
-1.92647
3.94687
-2.0204
1.2425
-3.56251
0.384359
2.47916
3.53082
-6.61635
-0.0414677
-4.77332
-3.92982
7.93381
5.60722
11.6384
1.24224
9.11035
-1.17654
10.3526
4.13937
4.37505
-3.03204
4.51656
1.00862
4.52761
-0.889883
2.83541
1.7435
1.78139
0.774828
2.31401
1.37408
3.19842
0.11631
-2.04214
4.62669
-8.64346
-0.994055
-8.05887
1.129
5.82092
-4.69192
3.0573
-0.907894
1.0369
0.0453347
-1.5221
1.47676
-2.77979
-1.98958
-0.408869
-1.65652
2.34015
1.85079
-1.93128
-0.848505
0.377217
-3.93125
3.10735
-3.11311
-0.340397
6.09018
-2.79016
0.293638
-1.10433
-2.28158
-2.82594
2.73013
6.17588
0.292159
3.11319
5.19597
3.10131
0.233899
3.8919
-5.65169
-3.58743
-5.85815
-0.353612
4.39895
1.71767
7.92863
5.7538
4.8123
-1.80267
-9.95529
6.53622
-2.01966
5.22215
-1.19736
-4.83871
5.00473
2.31682
-5.62249
0.0139433
-4.82477
-6.84443
-0.553475
8.26522
-9.63136
8.59514
5.77366
1.3582
-4.40993
-0.730014
4.23746
0.13759
10.4902
-1.17912
-6.7172
7.89632
-4.6418
3.64775
0.753264
2.73738
2.23003
1.32213
-5.39507
-10.087
-1.98934
-1.51675
-4.35469
0.514465
-2.36525
6.26883
-2.62108
3.93028
5.27524
6.31215
-2.13992
-4.17129
6.4555
-2.52521
3.78693
)
;

boundaryField
{
    wall-4
    {
        type            calculated;
        value           uniform 0;
    }
    velocity-inlet-5
    {
        type            calculated;
        value           uniform -3.75095;
    }
    velocity-inlet-6
    {
        type            calculated;
        value           uniform -5.62643;
    }
    pressure-outlet-7
    {
        type            calculated;
        value           nonuniform List<scalar> 8(3.18579 7.7225 4.38789 9.77201 7.45938 5.17944 5.78786 9.01847);
    }
    wall-8
    {
        type            calculated;
        value           uniform 0;
    }
    frontAndBackPlanes
    {
        type            empty;
        value           nonuniform 0();
    }
}


// ************************************************************************* //
