/*--------------------------------*- C++ -*----------------------------------*\
| =========                 |                                                 |
| \\      /  F ield         | OpenFOAM: The Open Source CFD Toolbox           |
|  \\    /   O peration     | Version:  4.0                                   |
|   \\  /    A nd           | Web:      www.OpenFOAM.org                      |
|    \\/     M anipulation  |                                                 |
\*---------------------------------------------------------------------------*/
FoamFile
{
    version     2.0;
    format      ascii;
    class       volVectorField;
    location    "46";
    object      U;
}
// * * * * * * * * * * * * * * * * * * * * * * * * * * * * * * * * * * * * * //

dimensions      [0 1 -1 0 0 0 0];

internalField   nonuniform List<vector> 
918
(
(0.98509 -0.00055105 0)
(0.00479968 2.96625 0)
(0.0125693 0.846519 0)
(0.979828 0.00240796 0)
(-0.011535 2.0518 1.60917e-20)
(-0.00705062 2.94891 -1.09819e-18)
(0.814133 1.16274 1.76155e-19)
(0.233028 0.119444 -6.3765e-21)
(0.999905 -0.000300814 0)
(0.0508653 0.825848 0)
(0.0133913 0.643516 0)
(0.732081 -0.0138494 0)
(0.011483 2.93022 0)
(0.00287022 2.79505 0)
(-0.0212295 3.15228 3.37371e-19)
(-0.0237421 1.89787 -3.97552e-22)
(0.302929 0.0359752 4.18431e-19)
(0.20371 1.18741 1.25866e-19)
(0.961965 0.00387667 0)
(-0.0065128 0.567001 0)
(0.0401845 0.149151 -3.03011e-19)
(1.00217 -0.00520001 0)
(1.00076 -0.0101519 0)
(0.975977 -0.00653302 0)
(0.579382 -0.0285647 0)
(0.0183879 2.63909 0)
(-0.0149534 2.91018 3.86408e-19)
(0.0149336 0.922077 0)
(0.00167132 1.17155 0)
(0.0141335 0.903161 0)
(-0.0101324 2.6142 0)
(0.00152126 2.11054 -1.25296e-20)
(-0.0111857 1.87475 0)
(-0.0204579 2.98751 -3.95436e-23)
(-0.0169819 3.00539 8.72361e-19)
(0.00201008 3.00015 0)
(0.870839 -0.00882755 0)
(0.438727 0.973828 8.07212e-20)
(0.785548 1.18174 -1.88599e-19)
(0.932415 1.01844 2.10563e-19)
(0.657868 1.27826 -4.03632e-20)
(0.66387 1.26206 2.35291e-19)
(0.272301 0.18963 6.2173e-21)
(0.24585 0.0937065 0)
(1.13575 0.571731 0)
(0.243053 0.179816 2.83924e-20)
(0.204388 0.118658 -2.94801e-20)
(0.919594 -0.00724355 0)
(1.00028 0.000157431 0)
(0.999916 0.000343769 0)
(1.00351 -0.00767277 0)
(1.00096 -0.000944961 0)
(1.00019 2.38769e-05 0)
(0.0622671 1.80465 -3.31341e-19)
(0.0254422 1.01552 0)
(0.0805239 0.893886 0)
(0.0106595 0.969788 0)
(0.031759 0.759099 0)
(0.0128459 1.99617 0)
(0.00832276 0.866031 0)
(0.00903082 0.658432 0)
(0.00263592 0.851342 0)
(0.0161601 0.632884 0)
(0.839298 -0.0146632 0)
(0.84605 0.0289683 0)
(0.765987 -0.00439869 0)
(0.815347 0.0371616 0)
(0.702894 -0.0131497 0)
(0.0153168 3.00067 3.99052e-19)
(0.0116935 3.00839 0)
(0.00651928 3.00252 0)
(0.0141201 2.99721 4.48403e-24)
(0.00835401 2.95854 -6.03222e-19)
(0.0151996 2.98192 0)
(0.0112383 2.90365 0)
(0.0251187 2.93065 8.85577e-25)
(0.00517646 2.82499 0)
(0.0309632 2.91623 0)
(-0.00434357 2.74489 0)
(0.302583 3.5437 0)
(-0.146302 3.62041 0)
(0.133983 3.24475 -3.11408e-19)
(-0.010172 2.98497 0)
(-0.0224887 1.99658 0)
(-0.00833618 2.16101 3.92026e-22)
(-0.0178289 1.9023 -6.89461e-21)
(0.407054 0.138804 -1.44908e-19)
(0.310073 0.0277897 -1.4011e-19)
(0.38543 0.14878 -4.3564e-19)
(0.28303 0.0474142 -2.87101e-19)
(0.191565 0.957154 0)
(0.217931 1.32211 -1.43329e-19)
(0.372052 1.2718 2.42952e-19)
(0.98735 0.00823813 0)
(0.941276 0.00544552 0)
(1.00031 0.000430862 0)
(1.00326 0.009496 0)
(1.00287 0.00785112 -1.12935e-18)
(0.991772 0.00989001 8.6234e-19)
(-0.00211199 0.818204 0)
(-0.000581356 0.575259 0)
(-0.0257488 0.970899 0)
(-0.00552579 0.834735 0)
(0.00422676 0.558177 0)
(0.0741675 0.154619 9.38708e-20)
(0.133149 0.132354 0)
(0.993363 -0.00824831 0)
(0.954486 -0.00615436 0)
(0.761211 0.0444931 0)
(0.698217 0.0567285 0)
(0.664203 -0.0235396 0)
(0.964764 -0.00447751 0)
(0.610876 0.0810644 0)
(0.441885 0.000323623 6.2461e-19)
(-0.0369638 2.86347 2.85709e-19)
(0.0417458 2.9091 0)
(0.054089 2.88543 0)
(-0.00423412 2.69922 0)
(-0.0136254 2.98514 3.64971e-19)
(-0.0180675 2.89508 0)
(-0.0158343 2.988 -1.13525e-18)
(-0.013183 2.92535 3.90006e-19)
(0.00439952 1.34885 0)
(0.0236198 1.38181 0)
(-0.00563979 2.12849 1.2775e-22)
(-0.00454671 2.08807 0)
(-0.0263313 1.88206 0)
(0.938194 -0.00764155 0)
(0.857225 -0.00820585 0)
(0.86266 0.00563466 0)
(0.949231 -0.0078195 0)
(0.883719 -0.00737618 0)
(0.547578 1.16803 -1.02885e-19)
(0.596945 1.20669 0)
(0.406547 0.927333 1.49264e-20)
(0.345959 0.780878 0)
(0.896868 1.05657 -5.68438e-20)
(1.00685 0.865376 1.15352e-19)
(0.357474 1.36059 0)
(0.516199 1.34109 0)
(0.523976 1.28962 0)
(0.123829 0.211468 -1.26717e-19)
(0.306556 0.18496 0)
(0.272358 0.0834771 8.11719e-20)
(0.98433 0.920076 0)
(1.06091 0.778341 0)
(1.08155 0.719805 -9.02085e-20)
(1.11539 0.625946 0)
(1.16488 0.41249 2.37804e-20)
(0.957677 -0.00849627 0)
(0.962379 -0.0102559 0)
(0.90202 -0.00737465 0)
(0.98435 -0.00918143 0)
(0.974842 -0.00933965 0)
(0.937445 -0.00597549 0)
(1.00018 0.0021491 0)
(1.00086 0.00143026 0)
(0.999868 0.000910419 0)
(0.028451 2.06549 1.81996e-19)
(0.0979628 1.75571 0)
(0.0141413 2.17429 2.85274e-19)
(0.0434116 1.8602 -2.40069e-19)
(0.0961465 1.20674 -1.02757e-19)
(0.0419037 1.08804 0)
(0.120677 1.03652 0)
(0.00634437 0.926831 0)
(0.00926309 0.711018 0)
(-0.00298334 2.23081 -4.86678e-22)
(0.0187036 1.99983 0)
(-0.00362342 2.23387 -2.20579e-20)
(0.0147232 2.00286 3.93545e-20)
(0.00703864 0.899808 0)
(0.00366934 0.880576 0)
(0.00674198 0.679718 0)
(0.00839738 0.834448 0)
(0.00732138 0.61504 0)
(0.936014 0.00986947 0)
(0.845651 -0.015308 0)
(0.92609 -0.00063396 0)
(0.840042 -0.0122001 0)
(0.810898 0.000222567 0)
(0.900502 0.0202199 0)
(0.8767 0.0245272 0)
(0.787782 -0.00164176 0)
(0.00409367 3.06433 -3.52309e-21)
(0.0170518 3.05763 0)
(0.0153721 2.96898 0)
(0.00893521 2.87612 0)
(0.961155 3.9794 0)
(1.30581 3.24316 4.49285e-19)
(0.0688017 3.07648 0)
(-0.0230805 2.90798 0)
(0.00246144 1.39505 0)
(-0.0255933 1.69872 0)
(-0.00588575 1.53618 0)
(-0.029081 2.56806 -1.47867e-21)
(-0.01026 2.25642 0)
(-0.0185954 2.40449 0)
(0.00310588 1.93028 6.4495e-22)
(-0.00383779 2.23318 5.49677e-21)
(-0.00620886 2.19304 6.95169e-21)
(-0.00725323 1.91447 0)
(0.443738 0.121967 2.19287e-19)
(0.347258 0.0165566 -2.15382e-19)
(0.271886 1.57672 0)
(0.249829 0.743508 -1.2719e-19)
(0.177637 1.66831 -4.19486e-19)
(0.204197 1.21083 4.20437e-19)
(0.901623 0.00584085 0)
(0.96731 0.0107683 0)
(0.974389 0.0106886 0)
(0.923146 0.00591172 0)
(0.00311302 0.824559 0)
(-0.00219603 0.815579 0)
(0.0123268 0.588731 0)
(0.209763 0.170572 2.62303e-19)
(0.176625 0.154985 -3.10444e-19)
(0.17318 0.124957 0)
(1.08908 0.0847368 1.17965e-20)
(1.06824 0.0383729 0)
(1.00485 0.0394672 0)
(0.901418 -0.00492606 0)
(0.482616 0.107546 0)
(0.53201 0.0901153 -9.9954e-19)
(0.390032 0.0114977 3.74282e-19)
(0.00907825 2.9814 3.04456e-19)
(-0.0328221 2.86721 1.94903e-20)
(0.00179383 3.04961 -7.45093e-21)
(0.0209036 3.04318 2.75055e-19)
(-0.0153782 2.99632 1.2799e-20)
(-0.0127634 2.94953 -5.16146e-23)
(-0.0175267 3.01148 -2.35356e-19)
(0.0142037 3.02299 1.69335e-19)
(0.00669718 3.03664 -2.74623e-19)
(0.932904 -0.00205304 0)
(0.938975 -0.00314142 0)
(0.84411 -0.00771109 0)
(0.956356 0.0116087 0)
(0.942649 0.0129669 0)
(0.881137 0.00540698 0)
(0.917466 0.0163071 0)
(0.92609 0.0148489 0)
(0.838143 0.00268164 0)
(0.760768 1.43311 2.44291e-20)
(0.803352 1.52446 0)
(0.215484 0.353453 3.11955e-20)
(0.254431 0.724289 2.48034e-19)
(0.294325 0.77447 -1.489e-19)
(0.303571 0.556028 2.89357e-19)
(0.339593 0.823077 6.59998e-19)
(0.139951 0.241455 1.50588e-19)
(0.357454 0.166939 3.04074e-19)
(0.335243 0.1792 7.93588e-20)
(0.28151 0.0610401 1.51511e-19)
(1.15656 0.468257 1.42419e-20)
(1.17054 0.267701 1.23468e-20)
(0.00784058 2.22456 1.10748e-19)
(0.0410465 1.92872 0)
(0.966043 0.030694 0)
(0.939439 0.0127703 0)
(0.86688 -0.0176546 0)
(0.0110721 3.07413 0)
(0.0203568 2.94385 5.00022e-19)
(0.0171808 2.95613 0)
(0.0067795 2.85062 -4.98346e-19)
(0.00575583 3.09085 1.18165e-19)
(0.00600357 3.08232 0)
(0.888367 1.82765 -6.85785e-20)
(1.27091 2.37706 1.17809e-19)
(0.868497 1.93124 -4.76096e-19)
(0.0202887 2.98118 -2.64677e-19)
(0.0361795 3.00205 0)
(-0.0318627 2.88073 0)
(-0.00522896 2.21221 -5.97156e-21)
(-0.00350771 2.23638 -1.36793e-20)
(0.00746156 1.96555 -3.81112e-21)
(0.279044 1.39299 4.1532e-19)
(0.20408 0.540644 -2.82755e-19)
(0.0535956 1.99358 3.15324e-19)
(0.153474 1.88666 -3.79207e-19)
(0.149337 1.48596 4.07429e-20)
(0.00180731 3.1182 -7.3346e-19)
(0.0167621 3.11751 8.25036e-19)
(-0.00970608 2.98084 3.35415e-19)
(-0.00362982 2.9777 -3.17796e-19)
(-0.0215182 2.88195 -3.41794e-19)
(0.00760356 3.09884 -8.8006e-19)
(0.00125133 3.10636 8.83126e-19)
(0.29503 0.735062 0)
(0.262769 0.733747 -5.15226e-19)
(0.112306 0.250863 2.29514e-19)
(0.35681 0.944976 4.49202e-19)
(0.186475 0.2815 -6.9296e-19)
(1.16932 0.175753 3.05682e-20)
(1.17154 0.316522 0)
(1.15536 0.126416 -7.33218e-21)
(0.000543756 2.24276 -7.54891e-22)
(0.00254479 2.23595 0)
(0.023177 1.96655 0)
(0.35222 1.2978 -1.48513e-19)
(0.379828 1.13916 -3.23657e-19)
(0.19029 0.374028 5.75241e-19)
(1.00554 -0.0111744 0)
(1.00751 -0.00743483 2.09715e-19)
(0.00400951 1.32368 0)
(-0.0179316 1.29848 0)
(1.00198 0.0034532 8.00462e-22)
(1.00381 0.0100463 4.2433e-19)
(-0.0155334 2.55188 1.94573e-21)
(-0.0231224 2.59422 0)
(0.0336239 3.17331 1.86869e-19)
(0.386419 3.47779 0)
(1.1763 0.641282 -2.79716e-20)
(1.01321 0.0136078 -7.63668e-22)
(1.02127 -0.0106637 0)
(1.00176 0.000117903 2.71393e-23)
(0.104031 1.35398 0)
(0.152492 2.57063 0)
(0.0241631 1.29119 0)
(0.00302018 2.62315 2.28135e-20)
(-0.0194937 2.58267 9.65234e-21)
(1.00134 0.0292887 1.00242e-21)
(1.06231 0.00345972 0)
(1.09377 0.0225494 0)
(-0.0222735 1.74313 0)
(-0.0203146 2.59169 0)
(0.00512146 1.29055 0)
(0.307498 1.46682 -6.62184e-20)
(1.01125 -0.00988096 0)
(1.0094 -0.0153651 0)
(1.00241 0.000641977 2.66367e-19)
(1.00538 -0.00478172 -3.16206e-19)
(1.0012 -0.00105076 0)
(-0.00618483 1.46147 0)
(-0.00500856 1.36393 0)
(0.00510091 1.41446 0)
(0.00475818 1.2783 0)
(-0.0043574 1.2557 0)
(5.38419e-05 1.23433 0)
(1.03437 -0.00688957 0)
(1.0207 0.0161255 -3.52584e-22)
(0.811291 1.25368 9.39006e-20)
(1.00221 0.000405106 -2.6561e-19)
(1.00402 0.00534829 3.15972e-19)
(1.00118 0.00213026 0)
(1.01342 0.0105739 2.63551e-19)
(1.00855 0.00868437 -3.19276e-19)
(1.00929 0.0156799 0)
(-0.0251907 2.62138 0)
(-0.025508 2.60148 -4.09268e-21)
(-0.0237096 2.6155 3.11389e-21)
(1.23017 0.252222 2.51138e-19)
(1.15653 0.0782524 0)
(0.0431282 3.07347 -4.06607e-19)
(0.064903 2.85341 -2.90061e-20)
(0.140677 3.1972 6.1724e-19)
(0.138378 3.2278 -7.87927e-20)
(0.132561 3.23424 0)
(0.0205882 3.13603 1.07984e-19)
(0.0749096 3.16174 3.96566e-19)
(0.0688746 3.1853 -2.05375e-19)
(0.0235886 3.12893 0)
(0.631841 0.279404 0)
(0.554707 0.326066 0)
(1.12761 0.670261 6.60834e-20)
(1.14948 0.798431 -6.38156e-20)
(1.19295 0.558975 0)
(1.23734 0.501089 0)
(1.01632 0.0136834 -4.97653e-19)
(1.01512 0.0148272 6.23751e-19)
(1.02519 -0.0101107 0)
(1.02317 -0.012429 0)
(1.0064 0.00260692 0)
(1.01012 0.00361225 0)
(1.0046 0.00186962 0)
(1.00984 0.00608672 0)
(1.00802 0.00630313 0)
(1.00443 0.00443344 0)
(0.0920843 1.35045 0)
(0.08814 1.32033 0)
(0.122355 1.38563 0)
(0.144526 1.40023 0)
(0.146608 2.59443 0)
(0.187174 2.65907 -1.88108e-19)
(0.0990656 2.65101 0)
(0.09027 2.6517 9.05747e-20)
(0.0416014 2.68078 -7.21388e-20)
(0.0177336 1.31012 0)
(0.0183537 1.23751 0)
(0.0187351 1.31606 0)
(0.025905 1.26098 0)
(0.00321978 1.97773 -9.7965e-21)
(-0.0183364 2.61125 1.82541e-21)
(-0.00765443 2.66453 1.87063e-20)
(-0.0160778 2.68677 0)
(-0.0220369 2.61782 -2.12586e-20)
(-0.0227699 2.61248 -6.63483e-21)
(0.0142287 1.97749 8.96273e-21)
(-0.00528543 2.39559 -2.36272e-21)
(-0.0120005 2.41806 -2.22365e-20)
(1.01131 0.0371417 5.00764e-19)
(1.00658 0.0170749 -6.22691e-19)
(1.0025 0.0436755 -5.04709e-19)
(0.980913 0.0234512 6.41227e-19)
(1.06343 0.00774637 0)
(1.04867 -0.00893129 0)
(1.09262 0.0315804 0)
(1.07301 0.0117653 0)
(1.07106 0.000745301 0)
(1.13336 0.083325 0)
(1.10825 0.0427953 0)
(1.11406 0.0279876 0)
(-0.0194636 2.44368 -1.93557e-22)
(-0.00645523 2.01842 0)
(-0.0134418 2.22556 0)
(-0.021595 2.61286 -1.38429e-21)
(-0.0180921 2.62124 -1.12132e-22)
(0.00741503 1.56014 -3.80195e-21)
(-0.00149955 1.4934 3.82709e-21)
(-0.00298015 1.37972 0)
(-0.00599845 1.38665 0)
(-0.00690458 1.38168 0)
(0.00845696 1.29318 0)
(0.0162189 1.23101 0)
(0.37787 1.4876 1.08124e-19)
(0.432137 1.48572 5.6848e-20)
(0.594519 2.44 -1.01536e-19)
(0.402968 2.5372 2.94823e-19)
(0.345195 2.06601 3.10381e-20)
(1.02111 -0.00816069 0)
(1.01545 -0.00987615 0)
(1.01497 -0.0160663 0)
(1.00736 -0.00123061 0)
(1.00494 -0.00105027 0)
(1.00772 -0.00463325 0)
(1.00918 -0.00374485 0)
(1.01408 -0.00447347 0)
(1.02138 0.0163177 4.88867e-19)
(1.01813 0.016153 -6.20827e-19)
(1.02169 0.0182526 -4.89457e-19)
(1.01954 0.0170873 6.14048e-19)
(0.773559 1.30585 0)
(0.7136 1.35625 9.24738e-20)
(0.88039 1.21538 3.38593e-20)
(0.942181 1.1489 -4.50261e-20)
(1.15787 2.60163 1.23523e-19)
(0.800287 0.114872 2.43956e-19)
(1.15306 0.110791 0)
(1.20882 0.193558 -2.01173e-19)
(1.19827 0.144654 -8.52909e-21)
(1.00255 0.149711 0)
(0.155717 2.96144 2.1151e-19)
(0.110971 2.86825 -5.43761e-19)
(0.0263213 2.38129 3.37121e-19)
(0.0959354 -0.0435845 -1.42152e-19)
(0.334897 3.42104 -8.69894e-20)
(0.196931 3.32018 0)
(0.227082 3.35323 1.13208e-19)
(0.253945 3.04152 -7.01301e-19)
(0.358339 3.20189 0)
(0.0054475 3.12081 2.0582e-20)
(0.0152948 3.12933 -2.46482e-19)
(0.0139326 3.12512 3.61482e-19)
(0.0345899 3.14025 0)
(0.0332855 3.14976 0)
(1.19114 2.64061 0)
(0.550887 0.829914 -2.14964e-19)
(1.07159 0.969716 4.57376e-21)
(0.976053 1.07057 0)
(0.831634 0.953586 -4.86519e-20)
(1.06473 0.879755 1.05067e-20)
(0.343058 0.376806 -3.79953e-19)
(0.675397 0.313105 -7.83326e-21)
(0.628129 0.221161 1.72984e-19)
(0.571607 0.372889 1.27534e-20)
(0.484184 0.322346 -5.147e-19)
(0.646788 0.33024 0)
(0.709134 0.413035 2.91843e-19)
(0.714872 0.410146 0)
(0.605499 0.362937 0)
(0.567817 0.268253 0)
(0.809481 0.606632 1.73945e-19)
(1.22177 0.281859 -2.16445e-19)
(1.22892 0.413745 0)
(1.24968 0.349861 0)
(0.729701 0.191099 2.56818e-19)
(0.857803 0.539996 -1.59879e-19)
(0.754124 0.509532 2.83666e-19)
(0.954814 0.427935 -3.09995e-19)
(1.01992 0.0148491 3.32803e-19)
(1.01807 0.0144471 -3.35037e-19)
(1.01589 0.016197 0)
(1.03598 -0.00614544 0)
(1.02963 -0.00863193 -3.13851e-19)
(1.0275 -0.0126268 3.11371e-19)
(1.02497 0.00993114 0)
(1.02374 0.0134555 0)
(1.01118 0.00401393 0)
(1.01429 0.00895406 0)
(1.01474 0.00412082 0)
(1.01386 0.00298047 0)
(0.0611911 1.33333 0)
(0.0637012 1.28749 0)
(0.141262 1.35486 -8.35688e-21)
(0.276833 1.46511 3.42321e-20)
(0.168165 1.43472 7.33511e-20)
(0.210547 1.44632 -1.1937e-19)
(0.164006 1.3783 0)
(0.129162 1.59375 -3.29716e-20)
(0.109023 1.56253 0)
(0.347045 2.0122 -4.48576e-20)
(0.347877 2.35956 2.53404e-19)
(0.190522 1.44765 2.88315e-20)
(0.249896 1.37141 4.59266e-21)
(0.196715 1.36098 -3.69199e-21)
(0.259349 1.31919 -5.12626e-20)
(0.228454 1.5771 0)
(0.259635 1.60674 5.39608e-20)
(0.0292049 2.26316 -1.66015e-20)
(0.0447186 2.66928 0)
(0.0621614 2.40159 6.85454e-20)
(0.0580808 2.42411 0)
(0.0708445 2.663 -1.00798e-19)
(0.053062 2.69758 0)
(0.0290299 1.40759 -2.02109e-22)
(0.034052 1.45948 0)
(0.0291668 1.37796 0)
(0.0252405 1.37979 2.27526e-22)
(0.00149332 2.65141 -8.79468e-21)
(0.0308298 2.69631 8.21253e-20)
(0.0126911 2.72064 6.23642e-22)
(0.00614772 1.82603 8.05329e-21)
(-0.00320767 1.6742 3.49614e-21)
(0.0150338 1.28264 0)
(0.0240166 1.21419 0)
(0.0500243 1.57141 3.76356e-21)
(0.0285548 1.4437 1.80798e-21)
(0.0382288 1.50934 -2.23757e-21)
(0.0395555 1.59556 0)
(-0.0238696 2.27841 3.67399e-20)
(-0.0307648 2.56032 -1.68293e-20)
(-0.00726797 2.45207 -2.26685e-22)
(-0.00139813 1.8403 -9.72282e-21)
(-0.0228041 2.50062 -3.30527e-21)
(-0.0178407 2.44428 1.36272e-20)
(1.01959 0.0211914 -3.30439e-19)
(1.01573 0.0268802 3.32636e-19)
(1.01466 0.016441 0)
(1.01209 0.0711497 4.63127e-19)
(0.990086 0.0607027 -5.20927e-19)
(0.946917 0.0418867 5.84702e-19)
(1.01384 0.105775 -6.17913e-20)
(1.04216 -0.00597768 0)
(1.0505 -0.00177749 3.0059e-19)
(1.03862 -0.0104722 -2.99949e-19)
(1.0703 0.0417184 -1.77433e-20)
(1.06392 0.0218872 1.5301e-19)
(1.06366 0.0527262 0)
(1.05348 0.0475491 -5.48912e-20)
(1.03271 0.0406623 0)
(1.02626 0.0374995 0)
(1.02757 0.0135604 0)
(1.02404 0.0161458 0)
(1.03954 0.0324288 1.12858e-19)
(1.03872 0.025756 -2.49122e-19)
(1.04996 0.0317639 -1.20147e-19)
(1.04858 0.0319572 -1.32164e-19)
(1.06882 0.0616393 2.57978e-19)
(1.09244 0.0510753 0)
(1.10321 0.0925697 0)
(-0.0193985 2.27561 9.6722e-21)
(-0.0125595 2.01831 -5.73377e-22)
(-0.0131197 2.01944 0)
(-0.0219225 2.45368 -1.00576e-20)
(-0.015984 2.41091 7.50719e-22)
(-0.0295057 2.48448 9.37493e-22)
(-0.0192888 2.6268 5.35038e-21)
(-0.0208209 2.56852 -7.08473e-22)
(-0.0164708 2.51756 2.19467e-21)
(-0.0142972 2.62327 -6.20982e-22)
(-0.0203043 2.62407 1.51369e-21)
(0.00261292 1.47575 -4.39457e-22)
(0.0170964 1.60974 -3.20693e-21)
(0.356484 1.43028 -4.40444e-20)
(0.357062 1.37111 2.07782e-20)
(0.653469 1.4098 -8.93937e-20)
(0.522607 1.47671 -5.51202e-20)
(0.587843 1.44303 0)
(0.582998 2.41818 9.54012e-20)
(0.65544 2.41653 1.45533e-19)
(0.403571 2.51442 3.72938e-20)
(0.405585 2.54755 -2.56937e-19)
(0.519536 2.49542 2.53037e-19)
(0.54355 2.45635 0)
(0.47976 2.51179 -2.38586e-19)
(0.23667 2.58632 4.96446e-19)
(0.346847 2.56701 -3.43535e-20)
(0.280518 2.64972 -6.77029e-19)
(0.93376 2.37743 3.23501e-19)
(0.827809 2.38617 0)
(1.01092 0.000273168 1.07311e-20)
(1.01525 -0.00546148 -8.89043e-21)
(1.01757 -0.00344766 -1.60158e-19)
(1.01487 -0.000917304 1.61907e-19)
(1.01221 0.00106127 0)
(0.638885 1.27923 0)
(0.653648 1.17507 0)
(0.759493 1.08151 0)
(0.653103 1.13352 0)
(1.18619 2.61154 2.7005e-20)
(1.0735 2.36094 0)
(0.852287 2.17473 1.64471e-21)
(0.82235 2.44348 0)
(0.922888 2.53571 -1.73736e-19)
(0.960427 2.49533 1.12859e-19)
(0.815665 0.177044 0)
(0.777345 0.146605 6.59981e-20)
(0.920544 0.144259 3.88433e-19)
(0.83262 0.146722 -1.43992e-19)
(0.801674 0.0856257 -4.47982e-19)
(1.07353 0.232676 -3.84375e-19)
(0.995352 0.298278 -6.49788e-21)
(0.92685 0.286206 3.56843e-19)
(1.00486 0.223255 2.99418e-19)
(0.952928 0.188598 -5.1526e-19)
(0.92063 0.189142 6.41931e-20)
(0.954269 0.248285 -1.37038e-19)
(0.934434 0.215686 0)
(0.992686 0.182958 2.54052e-19)
(1.04626 0.186151 0)
(1.04198 0.216425 0)
(1.10024 0.118604 1.20959e-19)
(1.07508 0.175759 -6.0485e-21)
(1.07079 0.232713 -6.49309e-20)
(1.1018 0.202151 0)
(1.02197 0.0452547 2.56383e-19)
(1.04221 0.0578848 3.16852e-19)
(1.03439 0.043927 -2.51763e-19)
(1.04302 0.0648611 -2.12896e-19)
(1.01755 0.0727248 -3.26627e-19)
(0.988868 0.155234 0)
(1.00226 0.104457 0)
(0.967978 0.0690386 -2.07839e-19)
(0.912506 0.0897281 8.11364e-20)
(1.03875 0.101287 2.95015e-19)
(1.06917 0.11806 -3.47104e-19)
(1.07703 0.149978 3.06876e-19)
(1.0283 0.144934 0)
(1.07284 0.107841 0)
(1.05577 0.0865041 -1.4177e-19)
(1.04536 0.0946623 -2.41132e-19)
(0.577788 1.07822 6.03452e-20)
(0.62288 1.38935 -2.45294e-20)
(1.16033 2.73678 -9.786e-20)
(1.23742 3.07278 -1.09423e-21)
(1.2499 2.70912 -5.95246e-20)
(1.27991 2.70713 -3.26374e-20)
(1.16674 2.35079 8.08545e-21)
(1.22588 2.96684 -5.59998e-20)
(1.24759 2.93577 1.22707e-19)
(1.24316 3.2273 -7.95195e-20)
(1.36522 2.96384 9.14912e-20)
(1.30285 2.88814 0)
(0.558727 0.834746 -2.05152e-20)
(0.109149 1.23767 2.51229e-19)
(0.560281 0.424866 2.49097e-19)
(0.369379 0.163386 2.68601e-19)
(0.512059 0.370341 2.91807e-19)
(0.554272 0.454268 -4.81394e-19)
(0.546948 0.470543 3.94524e-19)
(0.487964 0.379488 -1.48654e-19)
(0.396852 0.306633 3.33992e-19)
(0.733653 0.255782 -1.46929e-19)
(0.693992 0.277768 0)
(0.66565 0.198606 3.26573e-21)
(0.738204 0.507903 1.53224e-19)
(0.713592 0.469474 -5.60644e-19)
(0.611211 0.463296 4.95503e-21)
(0.624415 0.448737 0)
(0.675867 0.72549 1.67269e-19)
(0.852784 0.777316 1.62182e-19)
(0.766465 0.861426 -1.89086e-19)
(0.890016 0.805244 -6.51539e-20)
(0.913499 0.83722 -1.67942e-20)
(0.919719 0.83856 1.72533e-20)
(0.859918 0.638843 -2.89361e-19)
(0.93478 0.705453 6.07139e-20)
(0.988109 0.713028 0)
(0.969942 0.682494 -8.586e-20)
(1.02445 0.321777 8.94102e-20)
(1.1246 0.292711 1.26801e-19)
(1.0605 0.268672 1.54069e-19)
(1.01479 0.364593 -1.81064e-19)
(1.06018 0.424993 0)
(1.10411 0.410193 0)
(0.920445 0.357651 2.76425e-21)
(0.843322 0.296486 0)
(0.884408 0.293798 1.67355e-19)
(0.914455 0.293529 -3.52482e-21)
(0.94575 0.428693 8.64399e-19)
(0.906675 0.488019 2.25728e-19)
(0.90734 0.452712 -2.40112e-19)
(0.824675 0.43715 2.57539e-19)
(0.809741 0.433942 1.55127e-19)
(0.775497 0.413266 -1.51045e-19)
(1.02787 -0.000308259 2.64873e-19)
(1.01989 3.85406e-05 0)
(1.01853 0.000898888 1.75065e-19)
(1.02111 -0.00209035 -3.94553e-19)
(1.02209 0.00452458 1.92196e-19)
(1.02042 0.0112927 -4.04464e-19)
(1.02141 0.0106021 0)
(1.021 0.0105806 -8.35794e-20)
(1.01588 0.00782734 2.09346e-19)
(1.01681 0.0103639 -1.05916e-19)
(1.01749 0.00964906 7.79786e-20)
(0.0285517 1.31163 0)
(0.0323329 1.35439 0)
(0.0409263 1.31176 0)
(0.040758 1.26822 0)
(0.0651478 1.37673 1.90442e-21)
(0.0743417 1.3456 2.90963e-21)
(0.115901 1.50493 -1.21221e-20)
(0.0884522 1.35764 4.91485e-21)
(0.0332473 1.4489 -1.16493e-20)
(0.0367637 1.44142 9.00209e-21)
(0.0592857 1.36013 -1.67815e-21)
(0.0535922 1.3614 1.40231e-21)
(0.0451041 1.33859 9.58905e-23)
(0.0394214 1.36072 -9.25975e-22)
(0.106282 2.37122 -7.39079e-20)
(0.0906481 2.42056 0)
(0.165962 2.06341 4.76852e-20)
(0.110787 1.70576 1.90443e-20)
(0.233964 2.05315 -3.83159e-20)
(0.204189 2.43897 0)
(0.268189 2.39284 -2.4929e-19)
(0.304586 2.39121 1.76258e-19)
(0.220434 2.00638 -1.11812e-19)
(0.149119 2.16694 7.53004e-20)
(0.151236 2.28191 0)
(0.0147659 1.87696 -1.39781e-20)
(-6.54729e-05 2.39569 -3.35363e-20)
(0.00577528 2.15035 0)
(0.0109026 2.45787 -5.51473e-21)
(0.0260372 2.30301 1.16945e-20)
(0.0175171 1.3896 -4.80848e-22)
(0.0202497 1.37595 9.16078e-21)
(0.0213531 1.37988 -3.98316e-21)
(0.0230568 1.3799 -1.52852e-21)
(0.0284482 1.4119 0)
(0.0181076 1.36076 0)
(0.014343 1.28343 -5.83532e-21)
(0.0148846 1.35222 1.27779e-21)
(0.0185383 1.35265 0)
(0.0157952 1.27604 -4.06396e-21)
(0.0252299 1.21065 9.00482e-21)
(1.03985 0.0106914 0)
(1.04555 0.00728566 -2.79966e-20)
(1.03849 0.0211512 -2.00819e-19)
(1.04789 0.0198143 0)
(1.05154 0.0196826 0)
(1.03647 0.0113499 -2.82311e-21)
(1.03127 0.0108867 3.23676e-19)
(1.03156 0.0164566 3.95901e-19)
(1.02561 0.0203764 0)
(1.02305 0.0207452 0)
(1.03486 0.0254649 2.01207e-19)
(1.02608 0.0263339 0)
(1.02446 0.0261061 0)
(-0.0173153 2.01814 0)
(0.0198628 1.64839 -3.36225e-21)
(0.00467942 1.75768 -1.53624e-20)
(0.0100648 1.36339 0)
(-0.00638624 1.54108 -1.86813e-21)
(0.00676985 1.44346 1.13395e-21)
(0.00732441 1.37275 0)
(0.38064 1.67302 0)
(0.363282 1.29352 -4.0137e-20)
(0.307535 1.34095 0)
(0.416301 1.2924 1.57224e-20)
(0.466577 1.45669 0)
(0.446214 1.40201 4.54261e-21)
(1.03147 2.68229 -6.87875e-21)
(0.959102 2.41135 -3.95378e-19)
(0.908597 2.19446 4.52304e-19)
(0.841097 2.37836 1.1189e-19)
(0.84129 2.49728 0)
(0.913232 2.49044 0)
(0.915857 2.37253 0)
(0.896356 2.35939 -4.09762e-19)
(0.685187 2.45957 -1.70096e-19)
(0.796155 2.45527 -4.12519e-20)
(0.808632 2.42496 3.26543e-20)
(0.686823 2.39265 0)
(0.792882 2.39155 0)
(0.747965 2.4018 -1.5668e-19)
(0.765286 2.49246 0)
(0.624333 1.10604 0)
(0.487163 0.915859 -2.07415e-19)
(0.573053 0.944276 -1.3427e-20)
(0.528153 1.05059 0)
(0.531122 0.999406 3.13917e-19)
(0.789228 0.887108 -5.46344e-20)
(0.793245 1.01164 0)
(0.766256 0.960544 8.11868e-20)
(0.650178 1.04292 0)
(0.658532 0.945807 0)
(1.1669 2.75237 -1.03655e-19)
(1.14362 2.81781 -4.75893e-20)
(0.938799 2.33056 5.53575e-20)
(0.899667 2.31038 -3.88964e-20)
(1.12999 2.72364 0)
(1.0825 2.69202 4.9017e-20)
(1.08905 2.47709 -1.37849e-19)
(0.980716 2.2336 -1.39816e-20)
(0.496013 1.35181 0)
(0.507191 1.07255 -5.28925e-20)
(0.567949 1.15207 0)
(0.861838 0.232975 0)
(0.783906 0.190425 0)
(0.720221 0.149887 0)
(0.855863 0.234661 -2.64498e-19)
(0.755206 0.226194 1.54416e-19)
(0.928443 0.0758319 -1.68625e-19)
(0.944274 0.122129 0)
(0.922853 0.135409 7.21521e-20)
(0.86127 0.111396 2.90645e-19)
(0.830226 0.070026 -1.823e-19)
(1.17317 3.3617 -3.0772e-19)
(1.22493 3.28393 0)
(1.13862 3.37972 -6.04212e-19)
(0.637313 3.53822 5.28302e-19)
(0.849069 3.10607 2.13739e-20)
(0.516302 0.838498 2.51708e-19)
(0.420402 0.834003 0)
(0.318928 0.474673 -6.20849e-20)
(0.460737 0.669304 3.51919e-19)
(0.554066 0.438259 -8.52209e-20)
(0.522422 0.499186 9.70231e-20)
(0.661173 0.517569 2.10347e-19)
(0.696482 0.538416 0)
(0.655415 0.594085 0)
(0.610433 0.533692 0)
(0.986861 0.599133 4.22949e-20)
(0.911421 0.536094 -2.17954e-19)
(0.934261 0.566809 1.68898e-19)
(0.965775 0.509195 -1.69419e-19)
(1.08018 0.482463 0)
(1.07036 0.563936 -4.26809e-20)
(0.848513 0.393863 -3.51925e-19)
(0.852719 0.383283 -4.27168e-19)
(0.794938 0.376747 2.72979e-19)
(0.795667 0.353654 -2.7848e-19)
(0.84474 0.316929 -2.1839e-19)
(0.792615 0.315362 2.6866e-19)
(1.02669 0.00566463 -2.05409e-19)
(1.02634 0.00603309 4.25399e-19)
(1.02914 -0.000579132 2.56821e-19)
(1.03321 0.000799357 -3.10691e-19)
(1.03314 0.00779556 0)
(1.02998 0.00867444 -5.08996e-19)
(0.0611464 1.63713 1.07145e-20)
(0.0444925 1.57127 0)
(0.0858984 1.68349 7.61034e-20)
(0.0940687 1.66602 -6.78244e-20)
(0.0884654 1.51979 2.26409e-20)
(0.0868305 1.50878 0)
(0.019588 1.67179 0)
(0.000167183 1.47508 -9.0156e-22)
(0.00752547 1.41998 8.09907e-22)
(0.00121046 1.53711 3.18176e-21)
(0.0100472 1.87602 -1.5533e-21)
(-0.00644865 1.92749 2.67867e-21)
(0.496767 1.37092 -1.12442e-19)
(0.491259 1.37767 1.21225e-19)
(0.444688 1.29055 -1.71483e-20)
(0.434149 1.28928 3.3325e-21)
(0.626076 1.29966 0)
(0.544198 1.38712 3.8117e-20)
(0.560544 1.3982 -3.69917e-20)
(0.456139 1.27667 1.66733e-20)
(0.511843 1.23444 0)
(0.55732 1.19697 0)
(0.64698 2.41757 2.55281e-19)
(0.669976 2.46113 5.24842e-19)
(0.709012 2.47489 -3.60057e-19)
(0.607115 2.45566 -8.54532e-20)
(0.562087 2.54196 1.21701e-19)
(0.522408 2.52355 -3.14707e-19)
(0.974835 2.37738 -2.51754e-19)
(1.01067 2.38753 0)
(0.91865 2.17373 -2.93003e-19)
(1.05294 2.67261 0)
(1.05603 2.6594 0)
(0.60233 2.24875 -7.12359e-20)
(1.02925 3.15492 4.68788e-20)
(0.896227 3.01474 1.06173e-20)
(0.282804 0.89086 0)
(0.318001 0.728292 -1.32592e-19)
(0.461289 0.697984 -1.32561e-19)
(0.397451 1.97586 0)
(0.478548 2.78464 -1.51319e-20)
(0.43309 2.568 0)
(0.692618 0.662829 -3.5264e-19)
(0.779656 0.679864 4.724e-19)
(0.807167 0.614714 -4.63341e-19)
(0.680531 0.6274 -4.55235e-20)
(0.730859 0.58451 -1.8634e-19)
(1.01489 2.75986 -3.54061e-20)
(1.04813 2.8313 -4.92998e-20)
(0.65368 2.12976 2.95668e-19)
(0.582438 1.708 -2.04728e-19)
(0.711317 1.90276 -1.73936e-19)
(0.99715 2.46549 -4.56122e-20)
(0.998141 2.45288 1.06732e-19)
(0.666263 1.86777 9.72049e-21)
(0.460646 1.33149 6.24576e-20)
)
;

boundaryField
{
    wall-4
    {
        type            noSlip;
    }
    velocity-inlet-5
    {
        type            fixedValue;
        value           uniform (1 0 0);
    }
    velocity-inlet-6
    {
        type            fixedValue;
        value           uniform (0 3 0);
    }
    pressure-outlet-7
    {
        type            zeroGradient;
    }
    wall-8
    {
        type            noSlip;
    }
    frontAndBackPlanes
    {
        type            empty;
    }
}


// ************************************************************************* //
