/*--------------------------------*- C++ -*----------------------------------*\
| =========                 |                                                 |
| \\      /  F ield         | OpenFOAM: The Open Source CFD Toolbox           |
|  \\    /   O peration     | Version:  4.0                                   |
|   \\  /    A nd           | Web:      www.OpenFOAM.org                      |
|    \\/     M anipulation  |                                                 |
\*---------------------------------------------------------------------------*/
FoamFile
{
    version     2.0;
    format      ascii;
    class       volScalarField;
    location    "17";
    object      p;
}
// * * * * * * * * * * * * * * * * * * * * * * * * * * * * * * * * * * * * * //

dimensions      [0 2 -2 0 0 0 0];

internalField   nonuniform List<scalar> 
918
(
0.237058
0.919661
0.00909884
0.236241
-0.000848694
0.886796
-0.831507
0.419584
0.217103
-0.350677
0.0101343
0.207733
0.747173
0.514635
-1.45779
0.00929039
0.373753
-0.712427
0.215877
0.00361798
0.494347
0.223848
0.226819
0.217358
0.276051
0.507308
0.627656
0.00281945
-0.0023042
-0.00276086
0.00399854
-0.00464328
0.00185597
0.770422
0.821532
0.844192
0.187197
0.0205614
-0.681457
-0.760523
-0.747061
-0.888651
0.4082
0.412144
-0.477546
0.422738
0.438485
0.204694
0.216404
0.217328
0.218614
0.217447
0.218877
0.156471
-0.397512
-0.439833
-0.288406
-0.228742
0.0517926
0.00537543
-0.00630661
0.0188223
0.0155436
0.145629
0.204416
0.202682
0.21323
0.22218
0.85921
0.8311
0.857244
0.770971
0.787483
0.725108
0.697648
0.534499
0.555784
0.500665
0.491279
-1.89978
-2.87125
-0.856477
-0.596293
0.000807575
0.0146352
0.0198008
0.359271
0.367209
0.368821
0.381234
0.796622
-0.708006
-0.829247
0.215829
0.214646
0.22345
0.224087
0.220088
0.219189
0.0101174
0.0149778
-0.00654485
0.000714222
-0.000142868
0.475362
0.471863
0.217854
0.214863
0.230537
0.252313
0.241965
-0.0111195
0.288092
0.310537
0.309078
0.488987
0.486465
0.494021
0.601
0.564137
0.665114
0.688286
0.0108965
0.00305508
0.00676362
0.00524874
0.00623173
0.182406
0.175577
0.199183
0.190128
0.192426
-0.0628014
-0.198678
0.10498
0.126495
-0.585209
-0.65373
-0.770883
-0.780206
-0.907434
0.231969
0.394404
0.398784
-0.491554
-0.408843
-0.557731
-0.335308
-0.40796
0.196437
0.202463
0.197924
0.212117
0.206722
0.208672
0.220699
0.217738
0.219297
0.206141
0.306184
0.0883597
0.0885067
-0.583225
-0.479019
-0.559695
-0.159832
-0.118114
0.0506398
0.0526663
0.0392711
0.0407199
-0.0779158
-0.0205022
-0.0503238
0.019278
0.0176501
0.139036
0.130153
0.154184
0.160354
0.195252
0.196348
0.199452
0.198308
0.648304
0.670573
0.678235
0.652068
-3.88048
-6.7005
-0.262603
-0.118172
0.00286116
0.00269364
0.00157292
0.00393757
0.00279707
0.00128351
0.0241573
0.021697
0.0210222
0.0238092
0.342697
0.348153
0.743889
0.72928
0.694003
0.664456
0.203942
0.205978
0.21165
0.207469
0.0199801
0.0176583
0.0203951
0.438236
0.458016
0.456423
-0.0458111
-0.134646
0.03639
0.0631716
0.32961
0.315476
0.332353
0.372403
0.410512
0.695682
0.714102
0.712341
0.720955
0.765015
0.781443
0.746729
0.165261
0.172176
0.168652
0.203265
0.200486
0.201235
0.195664
0.198036
0.194805
-0.353042
-0.739657
0.182504
0.195673
0.168139
0.172274
0.311425
0.386405
0.374843
0.385237
0.388078
-0.270731
-0.33776
0.056905
0.0605752
0.0879829
0.118861
0.102817
0.619382
0.580152
0.630025
0.603356
0.564994
0.5902
-0.692554
-2.22127
-1.32305
0.248989
0.0526752
0.144596
0.0389753
0.0243523
0.0303093
0.690476
0.769054
0.384923
0.588732
0.548349
0.453237
0.484658
0.53708
0.461959
0.496598
0.533054
0.515065
0.184171
0.180173
0.159119
0.464459
0.531155
-0.160622
-0.208461
-0.266159
0.0444565
0.0453703
0.0577742
0.73812
0.602083
0.692622
0.214754
0.215417
0.0126028
0.0223547
0.219445
0.219479
0.00651185
0.00624924
0.124714
-1.17061
-0.164628
0.207965
0.198526
0.21498
-0.409536
0.0916254
-0.00316933
0.0986655
0.0545824
0.207023
0.155245
0.12169
0.00637763
0.0160592
0.00909157
-0.552393
0.212442
0.210818
0.214599
0.215564
0.216292
0.00704944
0.00976414
0.00667898
0.00745372
0.00763329
0.00526163
0.181818
0.195423
-0.480559
0.214566
0.2168
0.21658
0.209818
0.21525
0.213356
0.0130507
0.00792204
0.0077352
-0.059644
0.0546452
0.384627
0.497042
0.333216
0.105016
-0.140918
0.279269
0.349225
0.244538
0.41464
0.378103
0.406548
-0.105301
-0.252264
-0.0988445
-0.155766
0.205496
0.204226
0.196844
0.195068
0.209994
0.208151
0.212583
0.209615
0.212312
0.213693
-0.371822
-0.287507
-0.452242
-0.47093
0.0357051
0.293039
-0.0187708
0.0230572
0.0938619
0.0054376
0.0138136
-0.0127532
-0.016374
0.0261959
0.0505147
0.0758718
0.0474933
0.0540758
0.0277943
0.0214962
0.0364688
0.0286873
0.201926
0.198607
0.205857
0.212828
0.162634
0.165666
0.137636
0.152869
0.142846
0.0868609
0.119265
0.0984118
0.00682697
0.0076281
0.00519262
0.0190331
0.0220042
0.00975945
0.00810024
0.0119943
0.00931952
0.00841742
0.0113272
0.0146383
-0.514362
-0.602501
0.661768
0.604396
-0.103001
0.20157
0.207994
0.204673
0.209438
0.21266
0.213395
0.211195
0.207967
0.195932
0.198235
0.194334
0.193622
-0.425339
-0.560374
-0.376311
-0.439933
-0.17238
0.320512
0.0662611
0.00784135
0.00337951
0.21223
0.590328
0.403634
0.449478
0.475868
-0.671262
-0.269892
-0.600683
0.0123735
-0.168562
0.382182
0.436576
0.461612
0.405907
0.353338
-0.427539
0.20752
-0.350703
-0.311612
-0.121481
-0.221841
0.428611
0.362232
0.370378
0.395639
0.419449
0.371285
0.351588
0.349165
0.385104
0.390003
0.185376
-0.0265284
-0.0734156
-0.108418
0.349261
0.225811
0.282093
0.200672
0.200192
0.20361
0.202258
0.18589
0.192639
0.188209
0.193216
0.196219
0.205724
0.205334
0.201279
0.20365
-0.201197
-0.151739
-0.434261
-0.500066
-0.49875
-0.530774
-0.469262
-0.647182
-0.612087
-0.158805
-0.00323555
-0.593692
-0.466417
-0.511091
-0.432072
-0.343302
-0.296619
-0.0489283
0.0826243
-0.0652594
-0.00125242
0.0343833
0.0465032
0.00201208
-0.00685544
-0.0487428
-0.0126859
0.072089
0.0565656
0.0670352
0.0305608
0.0249061
0.0135154
0.015482
-0.0573113
-0.072943
-0.0500874
-0.0819339
0.0185596
0.0204397
0.023893
0.0312037
0.0333336
0.0371422
0.193909
0.195016
0.193962
0.20843
0.21949
0.234204
0.202985
0.18098
0.173504
0.173737
0.152353
0.159313
0.157459
0.168256
0.185958
0.193235
0.191105
0.193567
0.179951
0.181168
0.16861
0.172524
0.15367
0.136539
0.126152
0.0145312
0.0091621
0.0107655
0.0112321
0.00832829
0.00922619
0.0342566
0.0297389
0.0333189
0.0267358
0.0245573
0.0148503
0.0145003
-0.430411
-0.34331
-0.511414
-0.538043
-0.610381
0.575748
0.699709
0.528023
0.291035
0.323787
0.528797
0.670398
0.264702
0.433722
0.503201
0.197153
0.488677
0.20624
0.20641
0.204085
0.202953
0.203946
-0.331041
-0.229593
-0.219808
-0.165198
-0.0433768
0.0704543
-0.0558972
-0.15382
-0.0182291
-0.008059
0.315686
0.330688
0.27398
0.300563
0.299679
0.127693
0.201931
0.256279
0.211554
0.253383
0.275037
0.240593
0.267311
0.215114
0.175305
0.174354
0.123521
0.140649
0.118225
0.102639
0.19633
0.17642
0.185885
0.178046
0.197416
0.225049
0.220365
0.24301
0.25701
0.185161
0.147835
0.156705
0.18334
0.1463
0.158233
0.171212
-0.107079
-0.193397
-0.115104
-0.413714
-0.320076
-0.336374
-0.382073
-0.345018
-0.0555357
-0.766259
-0.729585
-1.36719
0.146302
0.622149
0.379255
0.348653
0.415686
0.390693
0.391044
0.426653
0.435281
0.337897
0.356204
0.357648
0.314899
0.340244
0.366266
0.36578
0.188976
0.0756152
0.0615749
0.0329995
-0.0869954
-0.0563152
0.146801
0.0686033
-0.0021518
0.00387154
0.162943
0.0597024
0.120757
0.156618
0.0910868
0.0490005
0.239144
0.308003
0.297686
0.272508
0.191456
0.204323
0.227584
0.260934
0.288463
0.322665
0.194455
0.198407
0.199693
0.19803
0.194224
0.197384
0.197771
0.200018
0.201043
0.203552
0.202613
-0.0402617
-0.0592054
-0.114275
-0.0705488
-0.368568
-0.425823
-0.51162
-0.460971
-0.0969165
-0.135262
-0.27875
-0.186453
-0.130231
-0.100756
-0.233317
-0.217838
-0.27789
-0.385935
-0.221359
-0.00637477
0.114091
-0.0275553
-0.291724
-0.174077
-0.0972819
-0.0237239
0.0357279
0.0312873
0.00767536
-0.0154552
0.0177893
0.0127177
0.00959133
0.0141448
0.0123747
0.0127695
0.0168966
0.0162771
0.0170906
0.0159951
0.0170522
0.182316
0.176202
0.176592
0.172293
0.171865
0.182087
0.186467
0.187843
0.192173
0.19429
0.186125
0.190375
0.193077
0.022312
0.0188373
0.0220722
0.0158871
0.0166536
0.0156321
0.0146062
-0.158004
-0.235576
-0.164468
-0.316778
-0.438583
-0.394205
0.134596
0.114311
0.145964
0.364745
0.231252
0.127011
0.206651
0.318069
-0.0339862
0.173282
-0.00639846
0.553632
0.433371
0.584677
0.24269
-0.0930272
0.0529126
0.10496
-0.0873479
-0.00925555
0.00210128
-0.105893
-0.0717241
-0.0429897
0.0519545
-0.0627529
-0.0907176
-0.346145
-0.179325
-0.0239658
-0.0437562
0.0849574
0.144406
-0.0998315
-0.155815
-0.197593
0.302697
0.324547
0.341689
0.310526
0.334985
0.261467
0.25271
0.270051
0.280569
0.274904
-1.10157
-0.813697
-1.75792
-1.07606
-0.63093
0.173589
0.134929
0.409784
0.309798
0.391267
0.374886
0.34009
0.304517
0.310097
0.346592
0.0592092
0.16563
0.142738
0.144939
0.0524414
-0.0104049
0.273735
0.266768
0.304914
0.32898
0.296503
0.329908
0.190575
0.190337
0.191585
0.18809
0.187737
0.189498
-0.174414
-0.158419
-0.291061
-0.35228
-0.381932
-0.317435
0.0289571
0.0209947
0.0180479
0.0187248
0.026388
0.0289212
-0.168597
-0.200574
-0.290742
-0.231284
-0.325786
-0.392901
-0.410987
-0.318193
-0.232744
-0.231989
0.112212
0.364863
0.204356
0.367409
0.223848
0.267889
0.147752
0.143875
0.175296
0.0445125
0.113672
-0.133919
-0.630438
-0.542748
0.421476
0.443043
0.22835
0.0345717
-0.189378
0.0054453
0.222995
0.164025
0.204973
0.270383
0.263876
-0.337478
-0.260001
-0.0242693
0.202321
-0.0848877
-0.107454
-0.10386
0.0529794
-0.0104628
)
;

boundaryField
{
    wall-4
    {
        type            zeroGradient;
    }
    velocity-inlet-5
    {
        type            zeroGradient;
    }
    velocity-inlet-6
    {
        type            zeroGradient;
    }
    pressure-outlet-7
    {
        type            fixedValue;
        value           uniform 0;
    }
    wall-8
    {
        type            zeroGradient;
    }
    frontAndBackPlanes
    {
        type            empty;
    }
}


// ************************************************************************* //
