/*--------------------------------*- C++ -*----------------------------------*\
| =========                 |                                                 |
| \\      /  F ield         | OpenFOAM: The Open Source CFD Toolbox           |
|  \\    /   O peration     | Version:  4.0                                   |
|   \\  /    A nd           | Web:      www.OpenFOAM.org                      |
|    \\/     M anipulation  |                                                 |
\*---------------------------------------------------------------------------*/
FoamFile
{
    version     2.0;
    format      ascii;
    class       volVectorField;
    location    "17";
    object      U;
}
// * * * * * * * * * * * * * * * * * * * * * * * * * * * * * * * * * * * * * //

dimensions      [0 1 -1 0 0 0 0];

internalField   nonuniform List<vector> 
918
(
(0.98516 -0.000503934 0)
(0.00500502 2.96625 0)
(-0.00801508 1.61786 0)
(0.979715 0.00212285 0)
(-0.00324191 1.57871 3.95864e-21)
(-0.00703341 2.94879 -1.88351e-18)
(0.850353 1.20606 7.29403e-19)
(0.46278 0.215176 -9.18266e-21)
(0.99991 -0.000305032 0)
(0.00454975 0.889872 0)
(-0.00576519 1.27986 0)
(0.796452 -0.00780776 0)
(0.0110988 2.93039 0)
(0.00135028 2.79473 0)
(-0.0182595 3.16896 1.08354e-18)
(-0.00621323 1.49123 -1.11559e-20)
(0.574291 0.0999473 5.75594e-19)
(0.179713 1.15953 6.45991e-19)
(0.963361 0.00509171 0)
(-0.00406527 1.39785 0)
(0.153421 0.262518 -4.88485e-19)
(1.00184 -0.00502547 0)
(1.00027 -0.00973415 0)
(0.975782 -0.00649216 0)
(0.713467 -0.0294058 0)
(0.0184702 2.6302 0)
(-0.0152218 2.91022 6.51952e-19)
(-0.018884 1.64175 0)
(-0.0191053 1.75406 0)
(-0.0181553 1.63769 0)
(-0.00423643 1.82467 0)
(-0.00236176 1.6024 -3.13212e-21)
(-0.00473629 1.49603 0)
(-0.0206241 2.98758 -6.59304e-23)
(-0.0167036 3.0053 1.46406e-18)
(0.0021027 3.00021 0)
(0.865615 -0.00800503 0)
(0.389594 0.927625 -2.25683e-20)
(0.842715 1.21644 -1.02231e-18)
(0.993714 1.06106 9.61459e-19)
(0.708424 1.30785 -1.70365e-19)
(0.703217 1.28921 9.60622e-19)
(0.488687 0.285785 8.95963e-21)
(0.479401 0.191244 0)
(1.17877 0.570432 0)
(0.461253 0.31013 4.21972e-20)
(0.420948 0.210751 -4.37879e-20)
(0.919827 -0.00727243 0)
(1.00037 9.25267e-05 0)
(0.999918 0.000326994 0)
(1.00343 -0.00779227 0)
(1.00096 -0.00106791 0)
(1.00017 -8.34483e-06 0)
(0.0689971 1.62929 -2.9727e-19)
(0.0112665 0.95777 0)
(0.0484806 0.85911 0)
(-0.0346356 1.00994 0)
(-0.0272534 0.952856 0)
(-0.000490073 1.58176 0)
(-0.0135751 1.42295 0)
(-0.0184058 1.24808 0)
(-0.00793041 1.47261 0)
(-0.0051391 1.30185 0)
(0.874125 -0.000380336 0)
(0.884106 0.00983061 0)
(0.809233 -0.00209975 0)
(0.877011 0.0146009 0)
(0.781384 -0.00882232 0)
(0.0146988 3.0004 6.89746e-19)
(0.0115191 3.00789 0)
(0.0061337 3.00284 0)
(0.0135369 2.99732 7.69304e-24)
(0.00799575 2.95847 -1.02513e-18)
(0.0144969 2.98211 0)
(0.0107954 2.90362 0)
(0.0249443 2.93049 1.38461e-24)
(0.0041733 2.82512 0)
(0.0314861 2.91546 0)
(-0.00635375 2.74351 0)
(0.309738 3.56734 0)
(-0.132653 3.64937 0)
(0.139941 3.25959 -1.00839e-18)
(-0.011225 2.9927 0)
(-0.0138824 1.80259 0)
(-0.00386501 1.63368 1.10052e-20)
(-0.00509185 1.50437 -1.86195e-20)
(0.631056 0.160738 -1.98325e-19)
(0.583915 0.0570007 -1.93834e-19)
(0.600585 0.194444 -5.96382e-19)
(0.54872 0.125087 -3.9693e-19)
(0.249597 0.931924 0)
(0.270617 1.30482 -6.54371e-19)
(0.363371 1.27938 1.07824e-18)
(0.987893 0.00847659 0)
(0.943341 0.00606345 0)
(1.00031 0.000551741 0)
(1.00288 0.00928479 0)
(1.00297 0.00835756 -1.11657e-18)
(0.99202 0.00977914 8.4303e-19)
(-0.0173543 1.53557 0)
(-0.00721607 1.38253 0)
(-0.0270072 1.64706 0)
(-0.0213901 1.57382 0)
(-0.00323852 1.43375 0)
(0.227209 0.280572 1.50429e-19)
(0.276286 0.259919 0)
(0.993595 -0.00824897 0)
(0.954432 -0.0066582 0)
(0.850131 0.0197517 0)
(0.81665 0.0331477 0)
(0.759954 -0.0205813 0)
(1.00983 -0.0057451 0)
(0.761927 0.0502365 0)
(0.627828 -0.0148122 7.71795e-19)
(-0.0355617 2.86577 3.34898e-19)
(0.0435146 2.90752 0)
(0.0570273 2.88308 0)
(-0.00574076 2.69612 0)
(-0.0129062 2.98543 5.99134e-19)
(-0.0182986 2.89567 0)
(-0.0153044 2.98816 -1.89554e-18)
(-0.0134429 2.92526 6.54617e-19)
(-0.0161933 1.81234 0)
(-0.0126106 1.80791 0)
(-0.00274152 1.63123 -2.16508e-22)
(-0.00231142 1.60102 0)
(-0.00580396 1.49307 0)
(0.93051 -0.0052987 0)
(0.852501 -0.00728346 0)
(0.860328 0.00940168 0)
(0.945249 -0.00625437 0)
(0.884067 -0.00712714 0)
(0.5038 1.12233 1.77912e-20)
(0.556108 1.17792 0)
(0.347415 0.863495 5.56632e-21)
(0.29133 0.726198 0)
(0.954127 1.09428 -2.76943e-19)
(1.06779 0.897006 5.64927e-19)
(0.424694 1.3814 0)
(0.5536 1.37015 0)
(0.55455 1.31725 0)
(0.0932683 0.13416 -1.25765e-19)
(0.520549 0.265974 0)
(0.505116 0.168053 1.14146e-19)
(1.03753 0.947344 0)
(1.10413 0.790551 0)
(1.13061 0.734877 -4.89274e-19)
(1.15757 0.628479 0)
(1.20875 0.409359 5.94958e-20)
(0.956291 -0.00799082 0)
(0.962075 -0.00940665 0)
(0.902224 -0.00803639 0)
(0.984226 -0.00903881 0)
(0.974833 -0.0094484 0)
(0.936724 -0.00625059 0)
(1.00007 0.00225986 0)
(1.00093 0.00150027 0)
(0.999884 0.000850701 0)
(0.0212506 1.86582 1.81206e-19)
(0.0693143 1.58503 0)
(0.0282857 1.85021 2.04581e-19)
(0.0174194 1.60307 -1.52089e-19)
(0.107324 1.16252 -5.3581e-19)
(0.063263 1.01755 0)
(0.129352 0.984052 0)
(-0.0581863 1.12597 0)
(-0.0412408 1.0779 0)
(0.0137668 1.73709 -9.21263e-22)
(0.00724846 1.59984 0)
(-0.00265547 1.71822 -3.48346e-20)
(-0.00977515 1.56721 6.93802e-20)
(-0.0456874 1.26149 0)
(-0.0295332 1.36076 0)
(-0.0287832 1.17954 0)
(-0.00989245 1.5029 0)
(-0.00618663 1.32024 0)
(0.953588 0.0144565 0)
(0.894625 0.00182259 0)
(0.934483 0.00958506 0)
(0.86185 0.000321816 0)
(0.813327 0.000218642 0)
(0.904838 0.00487322 0)
(0.896524 0.0040202 0)
(0.808373 -0.0043782 0)
(0.00585915 3.06482 -6.07125e-21)
(0.0164687 3.05808 0)
(0.0147437 2.96916 0)
(0.00850988 2.87631 0)
(0.926811 3.98544 0)
(1.24204 3.31389 1.01234e-18)
(0.0715429 3.08501 0)
(-0.025897 2.9125 0)
(-0.0160246 1.79644 0)
(-0.0165504 1.79851 0)
(-0.0148948 1.79711 0)
(-0.00859982 1.81264 4.51218e-21)
(-0.01285 1.8101 0)
(-0.0108982 1.80846 0)
(-0.00221901 1.51294 1.16903e-21)
(0.000532136 1.66217 1.99874e-20)
(-0.00104479 1.64895 1.90319e-20)
(-0.00193755 1.50416 0)
(0.654633 0.116527 2.90908e-19)
(0.594107 0.0256412 -2.8351e-19)
(0.214615 1.51252 0)
(0.291681 0.701996 -2.28094e-19)
(0.137014 1.62765 -7.52189e-19)
(0.171937 1.18337 7.51691e-19)
(0.90385 0.00873117 0)
(0.968468 0.0114107 0)
(0.975144 0.010608 0)
(0.925687 0.00713753 0)
(-0.0139203 1.51748 0)
(-0.0152889 1.52345 0)
(-0.00723665 1.34701 0)
(0.418527 0.320753 3.88191e-19)
(0.352469 0.301414 -4.73451e-19)
(0.363755 0.234294 0)
(1.12926 0.082955 -2.60775e-21)
(1.11441 0.037681 0)
(1.04438 0.0349906 0)
(0.954907 0.00621353 0)
(0.670686 0.0880554 0)
(0.701105 0.0632407 -1.24285e-18)
(0.605537 0.0115156 4.74721e-19)
(0.0099428 2.98236 4.24213e-19)
(-0.032184 2.86816 4.88256e-20)
(0.00381374 3.05016 -1.31103e-20)
(0.0199889 3.04356 4.71904e-19)
(-0.0150396 2.99656 2.17592e-20)
(-0.0129806 2.94945 -8.81126e-23)
(-0.0172675 3.012 -4.12558e-19)
(0.0147625 3.02411 2.97971e-19)
(0.00726271 3.03666 -4.65703e-19)
(0.930071 0.00722949 0)
(0.93023 0.00108434 0)
(0.848664 -0.00275388 0)
(0.956792 0.0129636 0)
(0.942747 0.0131773 0)
(0.882095 0.00815808 0)
(0.914418 0.0103299 0)
(0.92469 0.014322 0)
(0.833244 0.00684681 0)
(0.71322 1.40743 3.17275e-19)
(0.749013 1.51898 0)
(0.219107 0.36596 2.57643e-20)
(0.169294 0.563923 2.06845e-19)
(0.256583 0.680264 -1.20833e-19)
(0.221207 0.566539 2.22576e-19)
(0.287849 0.667215 7.25784e-19)
(0.109368 0.16178 2.12814e-19)
(0.576275 0.221988 4.27089e-19)
(0.547179 0.246498 1.05748e-19)
(0.528979 0.152869 2.14863e-19)
(1.19686 0.4655 2.87846e-19)
(1.21221 0.258181 3.01853e-19)
(0.0338058 1.78981 6.77296e-20)
(0.0255187 1.5795 0)
(0.997049 0.0265363 0)
(0.965404 0.0172336 0)
(0.918606 -0.00076386 0)
(0.0109153 3.07453 0)
(0.0199301 2.94404 8.10429e-19)
(0.0165743 2.9564 0)
(0.00613634 2.8508 -8.03839e-19)
(0.00608003 3.09127 1.92108e-19)
(0.00747821 3.08274 0)
(0.782936 1.82443 -2.36463e-19)
(1.24885 2.50906 6.48994e-19)
(0.765702 1.96626 -1.48458e-18)
(0.0213025 2.98463 -3.10622e-19)
(0.0376793 3.00862 0)
(-0.0316098 2.88307 0)
(-0.00411567 1.6805 -4.36157e-21)
(-0.00176473 1.67419 -4.52507e-20)
(-0.0028541 1.5354 -6.34155e-21)
(0.25031 1.32425 7.12752e-19)
(0.251727 0.462191 -4.94461e-19)
(0.03851 1.85091 4.8673e-19)
(0.103922 1.76506 -6.33596e-19)
(0.115742 1.41752 1.10214e-19)
(0.00266029 3.11836 -1.13581e-18)
(0.0176755 3.11773 1.2137e-18)
(-0.00859948 2.98125 5.19772e-19)
(-0.00256153 2.97793 -4.60285e-19)
(-0.0214125 2.88255 -5.2937e-19)
(0.00885791 3.09927 -1.40818e-18)
(0.00247186 3.10644 1.36759e-18)
(0.222542 0.589719 0)
(0.152373 0.562736 -3.94692e-19)
(0.134619 0.18673 1.74954e-19)
(0.320796 0.796911 6.5187e-19)
(0.170822 0.208591 -9.96529e-19)
(1.20999 0.170363 -5.31957e-20)
(1.21167 0.310125 0)
(1.19732 0.118413 1.1803e-19)
(0.0241603 1.75595 -7.6105e-22)
(0.0469658 1.77078 0)
(0.0257632 1.59399 0)
(0.29844 1.20093 -2.57729e-19)
(0.34873 1.01608 -5.49279e-19)
(0.19099 0.310558 9.34448e-19)
(1.00585 -0.0110524 0)
(1.00768 -0.00774598 2.039e-19)
(-0.0171427 1.80118 0)
(-0.0271147 1.8097 0)
(1.00223 0.00356512 1.80576e-21)
(1.00377 0.00948139 4.19001e-19)
(-0.00845427 1.81661 -5.96854e-21)
(-0.00691128 1.81565 0)
(0.0405981 3.18518 1.15249e-19)
(0.399262 3.50459 0)
(1.10479 0.644432 5.84272e-20)
(1.0119 0.0122873 -2.30429e-21)
(1.0212 -0.0103223 0)
(1.00169 0.000127737 -1.75653e-23)
(-0.0434763 1.11084 0)
(-0.0197864 2.64229 0)
(-0.0890711 1.66437 0)
(-0.0654452 1.9906 7.4141e-20)
(-0.0525853 1.89342 4.10518e-20)
(1.00442 0.0098852 2.07799e-21)
(1.04492 0.0161651 0)
(1.06982 0.0285129 0)
(-0.0183658 1.80068 0)
(-0.0097847 1.8311 0)
(-0.0261411 1.79126 0)
(0.322938 1.37807 -4.69433e-19)
(1.0112 -0.00960036 0)
(1.00944 -0.0156237 0)
(1.00227 0.000459546 2.57376e-19)
(1.00559 -0.00486529 -3.07301e-19)
(1.00116 -0.00103683 0)
(-0.0206538 1.79766 0)
(-0.0189417 1.79659 0)
(-0.0183022 1.79835 0)
(-0.0264927 1.79223 0)
(-0.0247572 1.79115 0)
(-0.0274533 1.79322 0)
(1.02627 -0.0131761 0)
(1.02072 0.01942 -8.37423e-22)
(0.792934 1.26617 5.2014e-19)
(1.00308 0.000261183 -2.60728e-19)
(1.00321 0.00576643 3.11722e-19)
(1.00125 0.00210111 0)
(1.01239 0.0105736 2.53293e-19)
(1.00783 0.00815904 -3.1406e-19)
(1.00881 0.0142618 0)
(-0.0101359 1.83095 0)
(-0.00957589 1.82467 9.85322e-21)
(-0.00842656 1.82342 -6.89821e-21)
(1.18347 0.250579 -4.67692e-20)
(1.12296 0.0848195 0)
(0.0566652 3.07855 -5.26996e-19)
(0.0692251 2.85093 -4.23601e-20)
(0.148784 3.19938 8.09799e-19)
(0.14282 3.22809 -3.79525e-21)
(0.140894 3.24565 0)
(0.0226103 3.13885 1.14471e-19)
(0.0820239 3.16332 5.1446e-19)
(0.0749281 3.19078 -2.21257e-19)
(0.0265654 3.12859 0)
(0.686346 0.326017 0)
(0.626339 0.386212 0)
(1.08139 0.673961 -2.29808e-19)
(1.07652 0.809918 3.62703e-19)
(1.14174 0.56121 0)
(1.17391 0.510992 0)
(1.0155 0.0130392 -4.68484e-19)
(1.01358 0.0141896 5.84384e-19)
(1.02476 -0.0101023 0)
(1.02063 -0.0165268 0)
(1.00664 0.00304953 0)
(1.0102 0.00402787 0)
(1.0045 0.00188188 0)
(1.00952 0.00616443 0)
(1.00779 0.00544032 0)
(1.00532 0.00501855 0)
(-0.0780954 1.13227 0)
(-0.110219 1.10736 0)
(0.0753721 1.11417 0)
(0.118025 1.15682 0)
(0.00990423 2.67224 0)
(0.101341 2.69419 -2.11012e-19)
(-0.0973427 2.63462 0)
(-0.116545 2.55785 1.86778e-20)
(-0.0789476 2.22305 -9.12497e-20)
(-0.0734009 1.67687 0)
(-0.0509536 1.70118 0)
(-0.113736 1.62268 0)
(-0.100086 1.55213 0)
(-0.184184 1.90426 -1.97342e-20)
(-0.0650624 1.91938 4.14345e-20)
(-0.0631803 1.98506 5.13364e-20)
(-0.052092 1.95647 0)
(-0.0505181 1.89178 -9.09863e-20)
(-0.0339194 1.8741 -3.88582e-20)
(-0.163608 1.88194 1.5351e-20)
(-0.100583 1.88667 -5.52151e-20)
(-0.102835 1.93856 -6.8116e-20)
(1.01233 0.0189818 4.65386e-19)
(1.01195 0.00385031 -5.7299e-19)
(1.00614 0.0199859 -4.84755e-19)
(0.992708 0.0134092 6.11494e-19)
(1.0446 0.0192373 0)
(1.0348 0.00665825 0)
(1.06524 0.038564 0)
(1.05237 0.0239064 0)
(1.05437 0.0129599 0)
(1.10638 0.0776398 0)
(1.08085 0.0486396 0)
(1.08823 0.037449 0)
(-0.0118271 1.81864 -1.2481e-21)
(-0.0187058 1.80789 0)
(-0.0141291 1.81123 0)
(-0.00994339 1.83736 1.25581e-20)
(-0.00839579 1.8384 -5.22387e-22)
(-0.0242309 1.80417 1.0434e-20)
(-0.0250665 1.80088 -1.05812e-20)
(-0.0275228 1.79836 0)
(-0.0262352 1.7992 0)
(-0.0258539 1.79913 0)
(-0.0261659 1.78945 0)
(-0.0212419 1.77506 0)
(0.426765 1.43702 8.76483e-19)
(0.398707 1.44967 3.23977e-19)
(0.634998 2.40041 -1.63303e-19)
(0.40961 2.54629 4.60566e-19)
(0.461089 2.04575 -5.20545e-20)
(1.02131 -0.00805516 0)
(1.01538 -0.00953354 0)
(1.01595 -0.0151246 0)
(1.00752 -0.000747142 0)
(1.00451 -0.0013596 0)
(1.00735 -0.00471518 0)
(1.00965 -0.00392811 0)
(1.01399 -0.00427794 0)
(1.02248 0.0179304 4.50803e-19)
(1.01625 0.0197918 -5.72111e-19)
(1.02275 0.0194808 -4.51017e-19)
(1.01885 0.0165782 5.63466e-19)
(0.764806 1.30736 0)
(0.693273 1.36295 6.18444e-19)
(0.862661 1.19995 3.54875e-19)
(0.903153 1.16685 -4.71874e-19)
(1.14708 2.61113 -5.10942e-19)
(0.834418 0.11011 2.99968e-19)
(1.12372 0.0969927 0)
(1.16826 0.170771 4.29922e-20)
(1.15986 0.154944 1.91843e-21)
(0.974338 0.123298 0)
(0.152859 2.97013 1.22303e-19)
(0.128859 2.87602 -6.69018e-19)
(0.0429215 2.34843 4.89914e-19)
(0.109863 0.117912 -2.03983e-19)
(0.343247 3.43223 -4.42566e-19)
(0.19888 3.32434 0)
(0.239514 3.36969 5.76364e-19)
(0.256457 3.04406 -7.26518e-19)
(0.351694 3.20258 0)
(0.0067325 3.1208 2.68201e-20)
(0.017354 3.12977 -3.43611e-19)
(0.0153886 3.12556 5.05744e-19)
(0.0384737 3.14041 0)
(0.0373447 3.15202 0)
(1.20973 2.61274 0)
(0.500582 0.845069 -2.33951e-19)
(1.01502 0.989288 -1.94959e-19)
(0.957318 1.04581 0)
(0.796432 0.95245 4.97496e-20)
(1.03462 0.867892 3.11497e-20)
(0.404435 0.482673 -5.48205e-19)
(0.714545 0.331879 -2.3224e-20)
(0.698631 0.288191 2.27614e-19)
(0.628673 0.422026 1.82624e-20)
(0.571633 0.411292 -7.50805e-19)
(0.698505 0.349575 0)
(0.722354 0.419776 3.80748e-19)
(0.72282 0.413589 0)
(0.671036 0.391727 0)
(0.659514 0.326043 0)
(0.739496 0.595565 1.42133e-19)
(1.18239 0.268489 2.21055e-20)
(1.18096 0.404676 0)
(1.18915 0.359257 0)
(0.760651 0.219943 3.41333e-19)
(0.791939 0.513774 -1.91089e-19)
(0.716404 0.497305 3.11173e-19)
(0.908772 0.400872 -2.96047e-19)
(1.02014 0.0150893 3.07836e-19)
(1.01739 0.0141937 -3.17293e-19)
(1.01365 0.0163988 0)
(1.02648 -0.0147522 0)
(1.02519 -0.0154246 -2.8425e-19)
(1.01986 -0.0208488 2.81206e-19)
(1.03259 0.00604878 0)
(1.02645 0.0168988 0)
(1.01121 0.00449085 0)
(1.01496 0.00842112 0)
(1.01591 0.00408093 0)
(1.0134 0.0017083 0)
(-0.175855 1.22847 0)
(-0.173132 1.25104 0)
(0.101844 1.02624 4.78918e-19)
(0.30899 1.35515 2.82259e-19)
(0.218874 1.20524 6.23288e-19)
(0.230912 1.26504 -9.95596e-19)
(0.300478 1.17246 0)
(0.1485 1.89088 6.86126e-19)
(-0.00651305 1.77715 0)
(0.485408 2.13831 7.75829e-20)
(0.403648 2.42526 2.22662e-19)
(0.408242 1.50156 -5.97484e-19)
(0.418383 1.28434 2.57937e-19)
(0.356795 1.16545 -2.06342e-19)
(0.488643 1.30664 4.68399e-19)
(0.463083 1.72881 0)
(0.486437 1.71747 -3.52129e-19)
(-0.31399 2.184 5.20421e-20)
(-0.128768 2.34168 0)
(-0.267176 2.37674 -1.60998e-19)
(-0.28973 2.29523 0)
(-0.126357 2.5182 -2.17856e-20)
(-0.0988869 2.39546 0)
(-0.178856 1.75681 6.04831e-21)
(-0.242771 1.82613 0)
(-0.217262 1.65628 0)
(-0.183746 1.67867 -6.82332e-21)
(-0.0862653 2.0509 -3.73849e-20)
(-0.0738797 2.19259 9.76291e-20)
(-0.0523516 2.09835 6.05393e-22)
(-0.0993063 1.83649 2.33204e-20)
(-0.122531 1.82852 8.50394e-21)
(-0.0397859 1.72681 0)
(-0.0259625 1.73848 0)
(-0.335975 1.91989 -6.82903e-20)
(-0.291197 1.69201 -9.09593e-20)
(-0.273098 1.82139 1.06423e-19)
(-0.38339 1.87426 0)
(-0.020203 1.82616 -4.59941e-20)
(-0.0195713 1.83703 2.16294e-20)
(-0.0218719 1.83962 -6.665e-21)
(-0.0794501 1.82455 -2.82448e-20)
(-0.0462552 1.86232 -1.11303e-20)
(-0.0570788 1.87062 6.30277e-20)
(1.02255 0.0135409 -3.02364e-19)
(1.02082 0.0099112 3.06754e-19)
(1.01702 0.0047493 0)
(1.00045 0.0448187 4.40514e-19)
(0.993464 0.0331107 -5.09987e-19)
(0.967653 0.0237779 5.91189e-19)
(0.997485 0.0795498 -5.7532e-20)
(1.02759 -0.00814464 0)
(1.0337 0.00811976 2.55231e-19)
(1.02638 -0.00592866 -2.53504e-19)
(1.04446 0.0392607 -1.42588e-20)
(1.04761 0.0286762 1.2655e-19)
(1.04194 0.0491204 0)
(1.03445 0.0409617 -4.71361e-20)
(1.02887 0.0272547 0)
(1.02494 0.0200535 0)
(1.03661 0.00856927 0)
(1.03262 0.010594 0)
(1.03625 0.025588 9.78748e-20)
(1.0389 0.0186516 -2.18456e-19)
(1.03735 0.0304033 -9.92469e-20)
(1.03588 0.0297754 -1.14689e-19)
(1.03872 0.0567469 2.0828e-19)
(1.06802 0.05212 0)
(1.0658 0.0938305 0)
(-0.0202521 1.82629 -1.63461e-20)
(-0.0197733 1.81272 -1.40198e-21)
(-0.0212983 1.81405 0)
(-0.0139684 1.82691 1.73952e-20)
(-0.0130892 1.82086 2.60231e-21)
(-0.0131154 1.82523 -2.62975e-21)
(-0.0291266 1.86874 3.26091e-20)
(-0.0236206 1.84906 -2.49e-21)
(-0.0332918 1.85352 1.21789e-20)
(-0.0109252 1.84933 -1.7295e-20)
(-0.015424 1.85228 2.1028e-20)
(-0.0280598 1.80439 2.39455e-22)
(-0.026895 1.80801 1.96216e-20)
(0.476806 1.38428 -4.24978e-19)
(0.47447 1.40115 -4.00061e-19)
(0.651413 1.39864 -5.97404e-19)
(0.513809 1.45726 -3.21753e-19)
(0.54491 1.43963 0)
(0.601796 2.38242 1.39755e-19)
(0.697795 2.34476 2.44518e-19)
(0.420597 2.51867 1.06522e-19)
(0.448755 2.58099 -1.41482e-19)
(0.564959 2.51696 3.19442e-19)
(0.530467 2.44379 0)
(0.542939 2.44874 -3.81018e-19)
(0.209049 2.64964 6.11653e-19)
(0.371574 2.59352 -4.84489e-20)
(0.247135 2.67875 -9.71327e-19)
(0.914612 2.36621 2.06496e-19)
(0.821966 2.34291 0)
(1.01079 -3.24983e-05 1.03153e-20)
(1.0151 -0.00508847 -8.27276e-21)
(1.01629 -0.00367568 -1.4965e-19)
(1.01464 -0.000961055 1.52235e-19)
(1.01291 0.000978422 0)
(0.637282 1.25433 0)
(0.641488 1.15361 0)
(0.735565 1.08974 0)
(0.63276 1.11692 0)
(1.17699 2.62957 5.42299e-20)
(1.05865 2.36183 0)
(0.855264 2.26498 -2.00108e-21)
(0.810767 2.49479 0)
(0.906675 2.58517 1.84247e-20)
(0.946672 2.54003 -1.22969e-20)
(0.839504 0.13707 0)
(0.811042 0.143405 8.60102e-20)
(0.920583 0.12683 4.41866e-19)
(0.862552 0.120081 -1.77352e-19)
(0.856427 0.0727706 -5.32543e-19)
(1.0255 0.208828 -2.65366e-19)
(0.956082 0.278817 -1.52666e-20)
(0.883855 0.275436 4.0288e-19)
(0.961626 0.202529 3.02057e-19)
(0.933028 0.159102 -5.56422e-19)
(0.908169 0.174571 7.18289e-20)
(0.925158 0.238085 -1.42076e-19)
(0.905362 0.192637 0)
(0.968098 0.159869 2.66578e-19)
(1.00134 0.158725 0)
(1.00059 0.188155 0)
(1.06151 0.103371 8.92926e-20)
(1.02246 0.148085 -1.37185e-20)
(1.01843 0.21146 -4.87768e-20)
(1.05154 0.180466 0)
(1.01697 0.0247493 2.32274e-19)
(1.03021 0.0432562 2.75979e-19)
(1.02576 0.029446 -2.30651e-19)
(1.02327 0.0476809 -1.85599e-19)
(1.00596 0.0495789 -3.09894e-19)
(0.976433 0.124834 0)
(0.983278 0.0765895 0)
(0.970653 0.0466909 -2.13663e-19)
(0.933903 0.0564702 8.93355e-20)
(1.00532 0.0798476 2.62922e-19)
(1.02572 0.104146 -2.71022e-19)
(1.03074 0.124964 2.46157e-19)
(0.992472 0.122977 0)
(1.03635 0.0929736 0)
(1.02293 0.0789706 -1.13236e-19)
(1.02061 0.0799912 -2.1081e-19)
(0.588881 1.07045 -8.6909e-20)
(0.632562 1.42188 1.87173e-19)
(1.15645 2.75722 8.60129e-20)
(1.21822 3.09545 -6.88282e-20)
(1.24186 2.73002 5.30434e-19)
(1.27395 2.71317 -3.27055e-19)
(1.19886 2.34534 -7.63569e-21)
(1.20476 2.99779 1.82913e-19)
(1.22369 2.96268 -1.96e-19)
(1.20949 3.24887 -2.64782e-19)
(1.37291 2.97723 3.66632e-19)
(1.36533 2.89427 0)
(0.500231 0.85214 -1.32664e-20)
(0.163861 1.29718 3.67437e-19)
(0.523646 0.546639 3.6298e-19)
(0.355039 0.31814 3.95527e-19)
(0.569504 0.441774 4.19102e-19)
(0.549477 0.504968 -6.65801e-19)
(0.546079 0.525435 5.45813e-19)
(0.519817 0.479885 -2.17945e-19)
(0.485016 0.422096 5.03772e-19)
(0.76826 0.265795 -1.90847e-19)
(0.736969 0.294671 0)
(0.728029 0.247301 1.09403e-20)
(0.711244 0.512785 1.96686e-19)
(0.694075 0.478858 -7.23544e-19)
(0.619107 0.506305 2.01235e-20)
(0.6403 0.476681 0)
(0.626359 0.738112 1.55459e-19)
(0.776718 0.758603 6.34131e-20)
(0.711358 0.847157 -8.27099e-20)
(0.82265 0.790282 -2.24666e-20)
(0.864107 0.833299 1.2089e-20)
(0.872186 0.835445 -1.23786e-20)
(0.782536 0.628393 -2.41433e-19)
(0.866611 0.686458 2.08864e-20)
(0.930893 0.698272 0)
(0.919512 0.672632 -2.29526e-20)
(0.981283 0.313238 6.72018e-20)
(1.08006 0.277681 1.71769e-20)
(1.01064 0.251659 1.08451e-19)
(0.96505 0.342642 -1.52423e-19)
(1.0034 0.401216 0)
(1.05138 0.397036 0)
(0.883949 0.335964 3.20666e-21)
(0.822847 0.278753 0)
(0.833246 0.276602 2.05331e-19)
(0.88084 0.28159 -8.087e-21)
(0.899572 0.401201 8.09771e-19)
(0.848558 0.458079 2.07704e-19)
(0.860513 0.424511 -2.57871e-19)
(0.805216 0.413415 2.76021e-19)
(0.791755 0.407797 1.87397e-19)
(0.780611 0.399902 -1.83981e-19)
(1.0258 -0.0113105 2.46318e-19)
(1.02064 -0.00562322 0)
(1.01839 -0.00359487 1.61888e-19)
(1.02391 -0.00729881 -3.65335e-19)
(1.02591 -0.000151646 1.771e-19)
(1.02217 0.0112025 -3.7429e-19)
(1.02338 0.012773 0)
(1.02217 0.0117909 -7.87505e-20)
(1.01684 0.00609541 1.95252e-19)
(1.01616 0.00969578 -9.96667e-20)
(1.01904 0.00938917 7.38522e-20)
(-0.161631 1.51238 0)
(-0.254225 1.61552 0)
(-0.200009 1.36974 0)
(-0.138882 1.40951 0)
(-0.318882 1.4991 -7.5086e-19)
(-0.199759 1.31586 2.44054e-19)
(-0.158494 1.7841 2.48173e-19)
(-0.187253 1.52288 -2.59857e-19)
(-0.337629 1.688 1.62757e-19)
(-0.347704 1.67175 -1.25164e-19)
(-0.311639 1.46962 1.03881e-19)
(-0.30478 1.47712 3.10898e-19)
(-0.278045 1.50087 3.12522e-20)
(-0.295966 1.58061 1.82108e-20)
(-0.257251 2.42571 1.76911e-19)
(-0.18563 2.52615 0)
(-0.147288 2.33759 -7.7436e-20)
(-0.22389 1.94352 -1.65146e-19)
(0.406156 2.17778 9.58835e-20)
(0.232149 2.58492 0)
(0.246619 2.51354 -8.71244e-20)
(0.407825 2.48518 6.06099e-20)
(0.21945 2.24434 2.49548e-19)
(0.0704868 2.33909 -1.31748e-19)
(0.00640338 2.59544 0)
(-0.287861 2.00253 4.69604e-20)
(-0.191051 2.00597 -8.58112e-20)
(-0.221203 1.95459 0)
(-0.211113 2.13201 -3.14801e-21)
(-0.299722 2.13212 -1.54748e-20)
(-0.114721 1.74538 2.80672e-21)
(-0.0762146 1.75529 -3.5337e-20)
(-0.0721335 1.77549 9.66974e-21)
(-0.115744 1.77833 1.21125e-20)
(-0.154991 1.76966 0)
(-0.0576671 1.77664 0)
(-0.0247767 1.7758 1.90237e-20)
(-0.0350357 1.78975 -5.90446e-21)
(-0.0418429 1.78311 0)
(-0.0265653 1.75858 1.37303e-20)
(-0.0193831 1.75938 -2.79466e-20)
(1.03439 0.0119425 0)
(1.04035 0.0143521 -2.43046e-20)
(1.04218 0.019335 -1.7397e-19)
(1.04037 0.0203509 0)
(1.0402 0.0218099 0)
(1.04379 0.00885682 -5.85613e-21)
(1.0408 0.00720838 2.93867e-19)
(1.04026 0.0113273 3.51538e-19)
(1.03405 0.0119664 0)
(1.02945 0.00895599 0)
(1.03782 0.0173062 1.77598e-19)
(1.02871 0.011182 0)
(1.02942 0.00986825 0)
(-0.0344614 1.82978 0)
(-0.0296937 1.80807 2.54227e-21)
(-0.0288679 1.8227 1.12176e-20)
(-0.0308571 1.79367 0)
(-0.0324436 1.80801 1.20447e-20)
(-0.0298875 1.80368 -6.62585e-21)
(-0.0317207 1.79794 0)
(0.366427 1.69691 0)
(0.440234 1.35978 6.17672e-19)
(0.409931 1.37902 0)
(0.451611 1.35414 -8.21152e-19)
(0.494864 1.41196 0)
(0.484685 1.40645 3.84703e-19)
(1.02081 2.71461 -3.90048e-21)
(0.93452 2.40884 -2.60632e-19)
(0.867491 2.14336 3.28079e-19)
(0.830867 2.33971 1.18792e-19)
(0.83135 2.52439 0)
(0.8958 2.5252 0)
(0.897636 2.35584 0)
(0.880201 2.32259 -4.404e-19)
(0.683194 2.4934 -6.08796e-20)
(0.79199 2.50215 -2.2451e-20)
(0.792118 2.47149 1.73874e-20)
(0.686524 2.33898 0)
(0.78642 2.33772 0)
(0.751221 2.34319 -2.29975e-19)
(0.746685 2.49083 0)
(0.592129 1.08018 0)
(0.468914 0.92469 -1.80251e-20)
(0.516578 0.956913 -2.23349e-21)
(0.512272 1.05096 0)
(0.503876 1.00475 3.08815e-20)
(0.732759 0.874506 1.11511e-20)
(0.761515 1.00827 0)
(0.730213 0.965796 -5.6484e-20)
(0.595995 1.02208 0)
(0.609059 0.93794 0)
(1.15913 2.77648 4.41401e-20)
(1.13927 2.84132 1.17303e-19)
(0.946764 2.37277 -2.69322e-19)
(0.916854 2.34427 3.48849e-20)
(1.12208 2.7497 0)
(1.07053 2.72302 -4.1342e-20)
(1.0743 2.49057 -8.21923e-20)
(0.963055 2.22031 -2.97753e-20)
(0.493605 1.37996 0)
(0.501183 1.0515 7.66009e-20)
(0.558121 1.12988 0)
(0.852434 0.213859 0)
(0.815975 0.15911 0)
(0.776088 0.172527 0)
(0.835759 0.226228 -3.22715e-19)
(0.78461 0.231127 2.0022e-19)
(0.936882 0.052787 -1.82518e-19)
(0.94272 0.100108 0)
(0.925635 0.107759 8.28054e-20)
(0.889985 0.0813746 3.3933e-19)
(0.884861 0.051608 -2.09022e-19)
(1.16077 3.37451 -9.7733e-19)
(1.20595 3.2944 0)
(1.16223 3.40179 -1.93777e-18)
(0.649105 3.56379 1.66031e-18)
(0.872605 3.13099 3.85469e-19)
(0.483581 0.874258 2.1802e-19)
(0.41451 0.861631 0)
(0.348321 0.561734 -8.26743e-20)
(0.414793 0.691451 3.7898e-19)
(0.521606 0.540769 -1.13726e-19)
(0.503856 0.565599 1.2774e-19)
(0.630216 0.555582 2.7438e-19)
(0.651359 0.558777 0)
(0.602627 0.633733 0)
(0.565186 0.570501 0)
(0.916755 0.578015 -4.64574e-20)
(0.848003 0.512369 -2.01009e-19)
(0.868794 0.547458 1.02413e-19)
(0.914052 0.483082 -1.46396e-19)
(1.006 0.465506 0)
(1.02662 0.542423 -9.99675e-21)
(0.83594 0.368146 -4.10064e-19)
(0.837779 0.354337 -4.75588e-19)
(0.802025 0.367566 3.22544e-19)
(0.780305 0.346092 -3.63525e-19)
(0.82597 0.300084 -2.70728e-19)
(0.783903 0.302252 3.32834e-19)
(1.03185 -0.000285106 -1.87298e-19)
(1.03424 -0.0012507 3.82347e-19)
(1.02833 -0.0104319 2.34219e-19)
(1.03261 -0.0109248 -2.81596e-19)
(1.03756 0.00328759 0)
(1.0375 0.0052736 -4.62065e-19)
(-0.417022 1.95956 2.57797e-22)
(-0.381153 1.8565 0)
(-0.385787 1.94845 -6.52838e-19)
(-0.327339 1.93131 6.28822e-19)
(-0.291968 1.77312 -4.65674e-19)
(-0.377029 1.80818 0)
(-0.0702478 1.82407 0)
(-0.0545776 1.79438 -6.43405e-21)
(-0.0421231 1.79623 5.84744e-21)
(-0.0384255 1.80737 2.91563e-21)
(-0.0472678 1.83063 -1.30372e-20)
(-0.0535715 1.83045 9.06446e-21)
(0.477112 1.40793 3.68615e-19)
(0.440101 1.41332 -3.96043e-19)
(0.451989 1.32161 4.13995e-19)
(0.408056 1.34878 -2.16383e-20)
(0.629173 1.28572 0)
(0.548262 1.39283 5.2755e-19)
(0.580321 1.35848 -5.12667e-19)
(0.471759 1.29306 -3.94415e-19)
(0.496646 1.24019 0)
(0.548467 1.17326 0)
(0.64705 2.45125 8.81882e-20)
(0.672959 2.45596 6.32977e-19)
(0.707707 2.46818 -4.28952e-19)
(0.649233 2.44523 -1.2808e-19)
(0.586901 2.56843 1.35782e-19)
(0.57748 2.54371 -3.83302e-19)
(0.949348 2.3705 -1.77196e-19)
(0.994881 2.39404 0)
(0.88463 2.12991 -2.4524e-19)
(1.03964 2.7066 0)
(1.03885 2.69752 0)
(0.613105 2.30146 2.38475e-19)
(1.04036 3.17939 4.77427e-19)
(0.912084 3.05168 -4.28848e-19)
(0.294261 0.980395 0)
(0.34238 0.847292 -1.48134e-19)
(0.477904 0.790356 -6.69996e-20)
(0.404825 2.06229 0)
(0.475013 2.80062 -2.68505e-19)
(0.433437 2.56843 0)
(0.634153 0.68629 -3.22551e-19)
(0.71023 0.66662 4.18943e-19)
(0.731155 0.610741 -4.10875e-19)
(0.617824 0.64795 -4.79091e-20)
(0.677236 0.605639 -1.96764e-19)
(0.999046 2.78996 -3.62938e-19)
(1.03661 2.84259 2.73416e-19)
(0.646599 2.19693 6.97882e-20)
(0.594297 1.73953 -8.08671e-20)
(0.70054 1.92391 7.46791e-20)
(0.983518 2.47522 -7.62111e-20)
(0.988098 2.46415 -1.40041e-19)
(0.660699 1.88178 -3.88755e-21)
(0.446144 1.34883 -5.91599e-20)
)
;

boundaryField
{
    wall-4
    {
        type            noSlip;
    }
    velocity-inlet-5
    {
        type            fixedValue;
        value           uniform (1 0 0);
    }
    velocity-inlet-6
    {
        type            fixedValue;
        value           uniform (0 3 0);
    }
    pressure-outlet-7
    {
        type            zeroGradient;
    }
    wall-8
    {
        type            noSlip;
    }
    frontAndBackPlanes
    {
        type            empty;
    }
}


// ************************************************************************* //
