/*--------------------------------*- C++ -*----------------------------------*\
| =========                 |                                                 |
| \\      /  F ield         | OpenFOAM: The Open Source CFD Toolbox           |
|  \\    /   O peration     | Version:  4.0                                   |
|   \\  /    A nd           | Web:      www.OpenFOAM.org                      |
|    \\/     M anipulation  |                                                 |
\*---------------------------------------------------------------------------*/
FoamFile
{
    version     2.0;
    format      ascii;
    class       volScalarField;
    location    "35";
    object      p;
}
// * * * * * * * * * * * * * * * * * * * * * * * * * * * * * * * * * * * * * //

dimensions      [0 2 -2 0 0 0 0];

internalField   nonuniform List<scalar> 
918
(
0.638613
1.28569
0.00867163
0.63782
0.0132788
1.25333
-0.418475
0.804554
0.618468
-0.00466776
0.0551923
0.613377
1.11416
0.880326
-1.03887
0.103485
0.756529
-0.298083
0.617823
0.0337254
0.839621
0.624926
0.627956
0.618354
0.681709
0.863817
0.994764
0.0109814
-0.01492
-0.0109793
0.0652156
0.0592357
0.0641961
1.13668
1.18731
1.20989
0.58715
0.422804
-0.264548
-0.346836
-0.339547
-0.465794
0.797642
0.799203
-0.0914244
0.80644
0.816168
0.606083
0.617806
0.618741
0.61984
0.618789
0.620215
0.496702
-0.0138678
-0.0449863
0.0152851
0.02719
0.154013
0.0618929
0.0575706
0.0551866
0.061167
0.53761
0.60935
0.606528
0.618323
0.62671
1.22445
1.19548
1.2211
1.1381
1.15291
1.09185
1.06387
0.900949
0.922436
0.867253
0.854885
-1.46138
-2.42049
-0.451691
-0.20048
-0.0128186
0.101489
0.108544
0.747295
0.746082
0.755882
0.77038
1.17106
-0.288326
-0.426445
0.617632
0.616606
0.624733
0.625092
0.622255
0.620338
0.0399983
0.0451155
0.00458601
0.0282273
0.0227883
0.828002
0.827143
0.62004
0.616638
0.633101
0.652103
0.646906
0.37083
0.683755
0.693728
0.68181
0.851137
0.846905
0.854552
0.969113
0.933058
1.03218
1.0554
-0.019647
-0.0319277
0.0885008
0.0827637
0.0949021
0.583119
0.575153
0.601814
0.590514
0.592937
0.33969
0.206498
0.516132
0.544339
-0.176388
-0.249725
-0.340215
-0.370527
-0.485913
0.707165
0.786824
0.786452
-0.1031
-0.0357033
-0.168414
0.0484277
-0.0169809
0.596447
0.603411
0.597779
0.613408
0.608142
0.609728
0.622102
0.619171
0.620693
0.557911
0.660387
0.427814
0.390203
-0.157312
-0.0591307
-0.160309
0.0389977
0.0458478
0.163844
0.190787
0.140989
0.13116
0.0503698
0.0582464
0.0539712
0.0692696
0.066062
0.532408
0.522849
0.551042
0.55813
0.600095
0.601007
0.603911
0.602632
1.01403
1.03651
1.04511
1.01866
-3.43755
-6.49242
0.122837
0.263955
-0.0585546
-0.0392247
-0.0294357
0.063371
0.00227199
0.00966913
0.109018
0.103841
0.106561
0.108523
0.730831
0.731555
1.07636
1.06706
1.04039
0.982855
0.605818
0.607935
0.613461
0.608944
0.0606116
0.049253
0.0590585
0.815679
0.822957
0.821799
0.334826
0.250087
0.421155
0.448999
0.71497
0.700446
0.713665
0.743528
0.780189
1.06186
1.07983
1.07996
1.08804
1.13311
1.14602
1.11183
0.563548
0.572978
0.568569
0.604995
0.602687
0.603598
0.599233
0.600604
0.597923
0.036302
-0.324574
0.609585
0.625329
0.60046
0.610615
0.779599
0.844556
0.769099
0.77791
0.7789
0.115979
0.0549237
0.345527
0.31021
0.474911
0.509804
0.487606
0.985178
0.946877
0.996905
0.969862
0.930251
0.955812
-0.363825
-1.60435
-0.863651
0.624022
0.433194
0.522049
0.116604
0.108326
0.116113
1.05437
1.14889
0.708268
0.894373
0.943623
0.818373
0.848915
0.907043
0.832299
0.866025
0.899361
0.879223
0.664006
0.624242
0.626051
0.9064
0.957606
0.230782
0.18106
0.125909
0.20974
0.262661
0.238648
1.10384
1.01191
1.08317
0.61624
0.616842
-0.0187683
0.00967012
0.621007
0.621204
0.0695439
0.0870539
0.507988
-0.735759
0.210575
0.609157
0.59954
0.616414
0.00528979
0.462322
0.0547641
0.153764
0.111849
0.610605
0.548156
0.510248
0.00742166
0.0983016
0.0425558
-0.128368
0.613753
0.611909
0.615923
0.616985
0.617616
-0.00470591
-0.000151297
-0.0380105
0.0286131
0.0288155
0.0266327
0.581277
0.598275
-0.0768962
0.616042
0.618242
0.618052
0.610898
0.616772
0.614684
0.0927708
0.0830902
0.0853208
0.324525
0.444259
0.752409
0.853768
0.719339
0.487894
0.237596
0.652846
0.717847
0.622519
0.778022
0.777662
0.799271
0.279026
0.121424
0.282079
0.222479
0.607345
0.605703
0.597924
0.594926
0.61136
0.609529
0.61395
0.610859
0.613795
0.61525
0.0492928
0.0279375
0.00940527
-0.0595881
0.418456
0.685702
0.350752
0.393297
0.241123
0.0622287
0.0615575
0.0533756
0.0487801
0.107441
0.0941275
0.151729
0.156603
0.132777
0.109557
0.0991826
0.0902846
0.0817285
0.604262
0.602861
0.609074
0.617522
0.557501
0.561195
0.527341
0.547242
0.533049
0.475372
0.509906
0.485329
0.054314
0.0396191
0.0303527
0.0931749
0.104101
0.0473937
0.0244689
0.024896
0.04197
0.0415536
0.0522227
0.0581771
-0.0877926
-0.202196
1.07238
1.00726
0.19922
0.602771
0.609325
0.60596
0.61092
0.613976
0.61484
0.612617
0.609195
0.598866
0.60071
0.59714
0.597648
-0.00977843
-0.155469
0.0154948
-0.0460131
0.213427
0.71126
0.456461
0.385973
0.386108
0.611259
1.02425
0.789565
0.782615
0.821854
-0.272891
0.108844
-0.20755
0.381803
0.203325
0.750402
0.801482
0.824629
0.770148
0.722376
-0.166344
0.621333
0.0368394
0.0808966
0.280746
0.173282
0.800251
0.761768
0.768116
0.786338
0.807359
0.76494
0.745623
0.742446
0.782604
0.787978
0.585414
0.360168
0.304607
0.272212
0.746977
0.62545
0.679086
0.593694
0.602167
0.604964
0.60348
0.58607
0.593381
0.589047
0.594899
0.598002
0.607352
0.607912
0.60294
0.605231
0.0512065
0.0483383
0.0721156
-0.0479965
-0.0372532
-0.10742
0.0294773
0.151934
0.121433
0.317454
0.398261
0.127285
0.0277367
0.055016
0.0756531
0.253365
0.310945
0.17079
0.258043
0.247666
0.230141
0.348011
0.347723
0.0802548
0.0688708
0.0696493
0.0707208
0.121822
0.191737
0.207437
0.102319
0.0981228
0.0671673
0.0737064
0.0727839
0.0710334
0.0728761
0.113432
0.0160042
0.0796031
0.0973595
0.105162
0.103399
0.0919599
0.597692
0.599636
0.599427
0.607102
0.623583
0.639069
0.598658
0.579591
0.570406
0.573183
0.546635
0.557015
0.552663
0.565167
0.586019
0.594662
0.593203
0.595804
0.579144
0.580612
0.567877
0.571285
0.54886
0.530195
0.518019
0.0369594
0.0325563
0.0493252
0.0434253
0.0632851
0.0658574
0.109463
0.119619
0.105008
0.104451
0.0985682
0.0581143
0.0667456
0.00810163
0.0892338
-0.0979265
-0.13316
-0.20778
0.975971
1.08184
0.900271
0.669765
0.681285
0.924981
1.00753
0.642202
0.809926
0.841218
0.677291
0.923782
0.607806
0.607356
0.604903
0.604417
0.605764
0.0802957
0.186281
0.186324
0.249413
0.359581
0.481596
0.392399
0.2638
0.396529
0.38784
0.705288
0.723572
0.669429
0.694489
0.692137
0.520431
0.597858
0.653752
0.607383
0.650773
0.670767
0.635396
0.662487
0.611362
0.565659
0.566812
0.51434
0.526955
0.507489
0.490862
0.597576
0.574375
0.585055
0.575975
0.59632
0.621213
0.615174
0.645333
0.656067
0.581341
0.540771
0.548014
0.579709
0.540184
0.553994
0.568744
0.308784
0.239067
0.275269
-0.0156909
0.0693535
-0.0069822
-0.0382515
0.0785522
0.378134
-0.363095
-0.424473
-0.980508
0.565108
1.08917
0.755634
0.698646
0.803448
0.778968
0.779228
0.811081
0.814418
0.737199
0.7546
0.76182
0.711103
0.733745
0.762906
0.758701
0.609139
0.467542
0.457783
0.422907
0.301633
0.338843
0.54045
0.455322
0.382936
0.398411
0.558437
0.453278
0.516584
0.54564
0.465916
0.439254
0.634481
0.706038
0.695308
0.669221
0.587885
0.59921
0.62892
0.66323
0.688315
0.72505
0.594513
0.600372
0.601628
0.599136
0.596309
0.599155
0.599302
0.601919
0.602712
0.605799
0.604746
0.0561806
0.0676118
0.0587399
0.0497606
0.0707294
0.0671639
0.118155
0.105789
0.0883376
0.0957616
0.067508
0.0669762
0.0712673
0.0795786
0.193668
0.195715
0.178085
0.145801
0.320297
0.459929
0.52252
0.400466
0.309645
0.336428
0.350454
0.0794658
0.109852
0.0981086
0.134157
0.129511
0.075225
0.0632896
0.0665506
0.0767216
0.090503
0.0666838
0.0746273
0.0757993
0.0720513
0.0691352
0.0537654
0.582056
0.575843
0.575948
0.570908
0.570154
0.582419
0.586832
0.589179
0.594528
0.59623
0.587134
0.592191
0.595665
0.0981035
0.0693537
0.0683703
0.0773254
0.0740864
0.0747887
0.0749681
0.207318
0.133628
0.132816
0.0915235
-0.0375572
0.0197223
0.574666
0.57344
0.583186
0.799322
0.652127
0.578349
0.677916
0.778749
0.352925
0.545589
0.381288
0.962247
0.854145
0.998647
0.60974
0.31471
0.473713
0.531439
0.32215
0.400156
0.402398
0.305116
0.33301
0.355078
0.45802
0.35065
0.332592
0.0829126
0.279
0.395938
0.382015
0.507121
0.575198
0.332817
0.259986
0.228114
0.696039
0.716627
0.740971
0.706542
0.73232
0.65612
0.646449
0.665045
0.673557
0.667822
-0.706206
-0.415544
-1.33085
-0.621463
-0.182561
0.5953
0.561059
0.838439
0.726042
0.786248
0.772769
0.744094
0.707953
0.718592
0.751081
0.45525
0.55976
0.536321
0.540103
0.434566
0.379534
0.675415
0.667341
0.706838
0.729769
0.696499
0.731878
0.592286
0.591937
0.591565
0.588363
0.586615
0.5886
0.153333
0.121872
0.162891
0.144572
0.120836
0.103921
0.0992324
0.0930693
0.0851702
0.0781772
0.102893
0.103098
0.23908
0.17838
0.109138
0.136995
0.0773819
0.00782866
-0.0107284
0.091667
0.18388
0.184803
0.489308
0.726142
0.547725
0.716827
0.583726
0.614638
0.574951
0.570257
0.599288
0.477248
0.55115
0.356998
-0.175561
-0.0573675
0.819861
0.884382
0.659384
0.528706
0.238801
0.369422
0.637422
0.564325
0.607006
0.678372
0.669356
0.087575
0.117788
0.447204
0.648884
0.320719
0.254067
0.269667
0.432057
0.386042
)
;

boundaryField
{
    wall-4
    {
        type            zeroGradient;
    }
    velocity-inlet-5
    {
        type            zeroGradient;
    }
    velocity-inlet-6
    {
        type            zeroGradient;
    }
    pressure-outlet-7
    {
        type            fixedValue;
        value           uniform 0;
    }
    wall-8
    {
        type            zeroGradient;
    }
    frontAndBackPlanes
    {
        type            empty;
    }
}


// ************************************************************************* //
