/*--------------------------------*- C++ -*----------------------------------*\
| =========                 |                                                 |
| \\      /  F ield         | OpenFOAM: The Open Source CFD Toolbox           |
|  \\    /   O peration     | Version:  4.0                                   |
|   \\  /    A nd           | Web:      www.OpenFOAM.org                      |
|    \\/     M anipulation  |                                                 |
\*---------------------------------------------------------------------------*/
FoamFile
{
    version     2.0;
    format      ascii;
    class       surfaceScalarField;
    location    "35";
    object      phi;
}
// * * * * * * * * * * * * * * * * * * * * * * * * * * * * * * * * * * * * * //

dimensions      [0 3 -1 0 0 0 0];

internalField   nonuniform List<scalar> 
1300
(
3.75095
5.62643
-3.08075
3.75095
-5.96557
5.62643
-4.4703
4.4703
-0.960529
0.960529
1.87648
1.87448
-3.05611
3.05611
-2.45149
2.45149
-2.55197
2.55197
-5.24647
5.24647
-5.06858
5.06858
4.66123
-4.66123
-5.93424
5.93424
-1.3294
1.3294
-3.89619
3.89619
3.16879
-3.16879
-2.27817
2.27817
-0.264871
0.264871
-0.553165
4.30412
3.19779
3.19779
-2.03587
2.03587
-4.86455
4.86455
6.21776
-6.21776
4.55163
-4.55163
-1.47088
-2.26698
0.828107
-10.5289
-5.13746
-5.13746
-8.44023
8.44023
-2.8138
2.81263
2.94402
-2.94402
-1.86113
1.86113
-4.39061
-0.0796819
-4.39061
4.47204
-0.00174466
4.47204
-1.05792
0.09739
-1.05792
3.95133
-3.95133
0.828986
0.131544
0.828986
3.06495
-3.06495
-1.87714
3.75362
1.87381
-1.87178
6.17589
-1.87918
3.75365
-5.92566
5.92566
-3.25989
0.203781
-3.25989
2.87857
0.177544
2.87857
-6.71823
6.71823
-2.50703
0.0555357
-2.50703
2.45577
-0.00427561
2.45577
2.8653
-2.8653
-2.6537
0.101724
-2.6537
2.44284
0.109128
2.44284
0.353686
5.27274
-5.98012
8.79274
-5.27274
0.0262741
5.20833
0.0381442
5.20833
-5.10578
0.0372025
-5.10578
5.01137
0.0572083
5.01137
4.73767
-0.0764335
4.73767
-4.78442
0.123192
-4.78442
-3.77361
-5.05282
-6.17309
0.238844
-6.17309
-1.32725
-0.00214821
-1.32725
1.28677
0.0426318
1.28677
-3.59656
3.59656
-4.25598
0.35979
-4.25598
3.12266
0.0461317
3.12266
1.86902
1.88193
5.61997
-5.61997
2.45118
-2.32554
0.0473753
-2.32554
-2.29428
-2.25735
2.29428
-0.016112
-0.524707
0.259836
-0.524707
3.16004
0.0377468
3.16004
2.28685
0.155998
-2.28685
0.25098
3.20969
-3.20969
1.38544
0.650426
1.38544
-5.56755
5.56755
4.9532
0.0581639
-4.9532
0.0886578
6.15643
0.0613217
6.15643
-6.19976
-0.0179922
-6.19976
2.11635
-4.38333
-2.71773
5.59252
0.341722
-5.59252
0.45506
2.91431
0.0297052
2.91431
-2.91938
2.91938
-2.98355
0.0395379
-2.98355
-2.24543
0.384304
-2.24543
1.57599
0.285137
1.57599
-4.26094
-0.129678
-4.26094
-4.38666
0.130678
4.38665
0.0853857
1.16262
-1.16262
-1.17292
0.115003
-1.17292
-4.10199
-0.158948
4.10199
-0.150657
-3.79738
-0.153954
-3.79738
-3.02373
0.0401777
3.02373
0.0412227
3.11309
0.0469536
-3.11309
0.0481337
-1.8709
3.75283
-1.88006
3.75387
-5.5506
-0.375062
-5.5506
6.23518
-0.309518
6.23518
3.59301
0.30318
-3.59301
0.333113
2.74175
0.136815
2.74175
-6.6891
-0.0291353
-6.6891
6.68554
0.0326974
6.68554
2.61461
0.127142
-2.61461
0.107585
2.4149
0.0408703
2.4149
2.88057
-0.015273
2.88057
-2.86509
-0.000210924
-2.86509
2.79875
-2.79875
2.73036
0.0683891
-2.73036
0.0766658
-11.1329
11.1149
-0.0352216
-11.0976
5.1731
5.1731
4.15172
0.585947
4.15172
-5.00007
0.215644
-5.00007
2.98625
-5.70398
3.98357
-7.75718
5.31832
-15.8472
4.07971
-9.13253
6.51479
-6.51479
6.36611
0.148679
-6.36611
0.193025
-1.3473
0.0200502
-1.3473
-2.99754
-0.599023
-2.99754
4.2452
-0.648633
4.2452
-3.02786
3.02786
-3.07675
0.048886
3.07675
0.045909
2.39308
0.0218144
-2.39308
0.0675387
0.683265
0.14572
-0.683265
0.158559
3.3868
-0.177112
3.3868
-3.03258
-0.177115
-3.03258
-1.36504
0.0177394
1.36504
0.0204009
-5.81716
0.249609
-5.81716
-11.1908
0.0931549
-11.1526
-6.10661
-6.10661
2.33362
11.1264
-2.88756
0.0224695
2.88756
0.0267561
2.9746
0.0532629
-2.9746
0.0552191
-2.86099
0.062235
2.86099
0.0583957
-2.63006
0.384628
-2.63006
-1.16687
1.16687
-1.34327
0.176403
1.34327
0.232722
1.39542
-0.232797
1.39542
1.24262
0.0441439
-1.24262
0.0697002
-3.6721
-0.125275
-3.6721
6.46094
-0.225754
6.46094
-2.93207
-0.100508
2.93207
-0.0514992
-0.0333546
11.1482
-5.13975
0.0339712
5.13975
-11.2095
11.2435
-3.25776
0.627697
3.25776
0.893958
5.28963
0.277925
-5.28963
0.289557
6.62478
0.0607582
-6.62478
0.109986
-2.51826
-0.479276
-2.51826
-4.98497
-0.565633
4.98497
-0.739774
-11.4743
-0.202919
11.6772
-11.4171
6.02008
0.136356
-6.02008
11.3799
-1.09345
-0.069164
1.09345
0.0734139
1.68872
-0.293305
1.68872
3.563
-0.176201
-3.563
-0.109098
-6.60753
-0.0815661
6.60753
-0.146596
-2.08197
-0.436291
2.08197
-0.393253
-4.26686
4.30461
1.90903
-2.26392
-2.11941
-4.52127
1.85159
1.90124
4.30277
-10.1514
-5.69585
-9.69633
7.26032
-6.97076
-9.27452
9.19808
7.60083
-7.75479
-5.78713
5.83304
6.48248
-6.44126
1.87868
1.87494
7.84313
-7.63935
-15.68
15.3049
7.47076
-7.41523
15.8176
-15.8467
-17.8368
17.8975
-5.72183
5.82356
-6.72469
6.72448
-6.94233
6.89083
-3.5945
-4.16268
13.0767
-12.8378
8.00726
-7.95988
-8.48612
8.84591
3.38195
0.922659
3.4289
-1.88236
3.76105
-1.87129
3.78032
2.80335
-6.39785
2.90063
-5.02004
3.65842
4.34884
-3.64231
-0.878966
-5.91822
5.94793
-5.82322
5.88161
8.98783
-9.06751
-1.8852
3.76013
-1.86867
3.76991
-3.42656
-2.36057
3.38043
0.922343
7.8885
5.18816
-8.23022
-1.46611
-7.9006
7.7244
-8.15647
7.97936
-0.436889
5.81768
-5.38079
4.42766
-1.55283
7.37051
5.70749
5.92313
5.8643
-5.58638
1.10646
-6.48724
-6.39859
-2.53462
2.64962
2.46199
-2.33044
5.97111
1.62973
5.82045
-5.59595
-2.15884
-5.72123
3.82193
2.01112
3.87081
4.07635
2.40613
4.11653
3.03077
-3.03553
0.00476236
-3.05628
6.08705
0.724599
-5.41685
-4.49451
4.90687
2.93626
5.08441
-5.45152
-2.18783
-5.1184
-9.55213
-6.12782
-10.1178
10.1272
5.17765
9.81772
-11.9969
11.8503
4.75426
2.7165
4.74998
-4.90941
-2.50582
-4.80182
11.6405
-2.56334
-9.07714
-10.3256
-7.51117
10.2929
5.52468
10.9254
6.97216
11.0354
4.41721
7.22327
-9.94188
2.43071
-3.8697
-1.85213
-3.79303
3.697
2.12655
3.80613
-4.21226
-2.51243
-4.18979
-4.28608
-2.65625
4.30135
2.42313
-4.39897
-3.7575
4.49948
2.39135
4.63469
-10.3305
4.49784
-8.66052
-9.18111
-3.65671
-8.98808
3.69895
3.03396
-6.7329
-2.6989
8.59791
-4.24907
7.71894
-4.83098
-3.1289
-4.76344
-6.76824
-1.71788
-6.63757
-8.85289
8.37361
-9.18861
8.53998
12.6384
-5.71819
-6.92021
-3.96838
-2.47287
3.92025
-0.491346
-3.71081
3.71557
0.050234
3.83056
4.75322
4.26187
-3.88803
-1.93519
-3.83281
3.83332
2.04829
3.89556
6.76323
2.2246
6.76148
-6.48823
-2.57928
-6.61791
9.04002
-8.65572
2.89139
-2.87365
5.31676
2.6626
-5.13964
-2.76095
6.20336
-3.16452
-3.03885
-12.2123
10.5771
1.63523
-4.84181
-0.414156
-0.149285
-5.49345
-3.78106
5.37026
0.552871
11.13
7.3489
-5.51147
5.76108
6.16573
6.22389
-0.174697
5.77622
-5.14853
5.32077
-2.40191
-2.91886
5.32949
-5.48844
-1.28842
-5.29948
4.01106
0.332014
1.69526
-1.43543
-1.99446
-0.540163
-1.92476
1.47361
0.988381
1.61933
0.967256
1.68237
-2.95853
0.550684
2.40785
-1.99128
-1.77976
-3.70099
-1.06892
4.76991
5.64824
2.07616
-5.53914
-0.182086
2.6813
-2.63867
-0.767426
-2.93356
2.14905
-2.91647
-3.6693
-1.88714
5.55644
-3.3713
-0.461508
3.31803
0.552776
-3.82489
-2.09333
3.78535
0.33118
-3.1244
6.18867
-3.06427
-5.0596
2.52908
3.55797
4.5402
-4.789
2.44604
2.34297
-1.23104
4.19589
0.888525
4.3327
-6.70568
4.51784
5.72692
3.11899
-6.0301
0.911698
-5.79398
8.43522
-7.25317
-1.18205
4.08771
4.34751
7.16852
5.46988
-5.74304
12.9116
-1.17111
-6.08206
6.96509
-3.8461
4.75853
-8.60464
-10.2284
4.14635
-9.25122
11.0087
-1.7575
-3.62601
-8.37089
12.8772
-1.22107
-11.6562
8.59665
-4.16825
-4.24655
8.4148
-6.73158
6.75237
-1.95353
-4.79885
-10.1407
-5.70598
10.2223
1.628
-9.82046
12.2512
-2.5972
4.02523
0.724755
4.0661
3.23041
-5.37681
2.1464
3.50117
-5.45469
2.0684
-7.44522
-6.82724
12.235
-5.40781
-10.4839
-9.5734
-0.910545
2.49798
9.7532
-9.47014
7.37745
2.09269
3.30975
0.585802
-3.37814
-0.41489
0.258693
4.53355
-4.79225
4.06482
4.22082
3.35743
1.17613
3.83997
2.10796
-3.86672
-0.323072
-4.15448
1.49823
-1.73135
-3.67059
5.16882
-4.06595
0.395356
-2.73392
-3.5111
6.24502
-4.58605
3.03815
3.15052
5.08644
-4.91447
1.40338
-2.40337
-2.5111
2.66257
-4.39392
1.96386
3.20497
4.35521
0.597708
6.08794
6.1471
-9.1219
0.461379
11.3353
-9.86915
2.49935
8.53601
-9.8768
0.303397
-8.68469
1.31273
-5.5618
-5.42017
5.0836
-6.80148
-3.52103
6.13324
0.628238
-6.21863
-0.418937
-6.0302
-2.82269
-6.46649
-3.05429
-6.13432
-8.79733
-1.64027
-7.15706
6.73334
-6.6825
-3.43526
7.42227
1.1177
-7.38795
7.31878
-7.4658
7.17249
0.0949269
3.62065
4.3568
1.88392
-2.38961
4.27353
-5.05454
7.27914
-8.53132
3.47678
4.00289
-6.58217
-4.52843
5.0301
4.00992
5.31523
8.90983
-10.4138
1.50397
-10.7357
12.0488
-1.31313
-16.4902
5.75452
-7.58039
2.62445
0.26694
2.6445
0.63874
2.46189
-3.10063
-2.23491
-2.21451
-2.35256
-3.44244
5.79499
1.15427
-3.45187
2.2976
-3.5044
4.65867
-0.069238
-3.38263
5.30391
-2.84202
5.57085
-3.57363
1.99722
3.36134
5.73519
-2.37384
4.36372
-1.70112
1.83967
-4.21352
-1.60276
-2.96801
5.09456
-3.27701
3.67237
-0.302315
3.97468
-4.08797
0.923454
-0.730546
3.49028
3.74126
4.2787
-3.10257
2.97367
-4.67479
-1.23985
-4.07708
-0.872111
-0.294622
-3.75369
4.04832
6.03175
-6.32637
-5.22973
9.54269
-4.31296
7.72459
-5.39056
-2.33403
-4.2467
-4.40902
3.86207
1.91415
9.63874
0.235042
-5.6256
-4.91348
-4.01953
3.20451
2.11625
-1.90825
3.54348
2.05754
-0.362275
0.558008
1.06132
1.86912
-1.31111
0.21555
1.65357
-1.21988
1.96648
0.714826
-2.01062
0.0858615
-1.3508
3.49985
1.05705
-2.04543
0.734314
1.07001
-3.47191
4.88681
-2.49994
-2.38687
5.95681
1.14891
-3.64885
4.15057
-3.81855
2.33267
-3.40159
-1.31618
-5.13474
-3.50501
-2.57572
4.87332
-3.21927
5.29543
1.20402
-5.11334
6.31736
-3.57027
1.68313
-3.0893
3.80412
-1.0884
-2.0009
2.82279
2.73365
-2.94799
0.0144327
-0.1252
2.34167
-2.46687
-0.574803
-2.56608
-4.57291
4.90409
-2.10675
4.55279
2.16678
-1.91484
6.46763
1.81095
-3.72579
-3.24865
-3.71015
-1.38282
3.15738
-0.566319
-4.2355
-5.36517
4.10836
0.22434
-6.83379
7.63859
-0.8048
-3.89753
-0.620317
4.70802
-5.93122
0.476522
-3.86281
3.77578
4.6643
4.88864
-11.4493
-0.206872
-6.27163
1.15885
-7.43048
5.50636
-3.61232
7.75867
-10.4169
6.98168
-9.29924
6.57662
-0.85386
6.26068
-4.11428
2.81646
-8.52244
-6.89444
5.42751
-2.71101
6.15227
-3.10659
9.25886
-5.70379
5.20112
4.05775
-0.759617
-4.00383
-5.2852
4.52558
-0.0840843
3.98201
4.97106
-2.8631
4.64799
2.25837
-4.66174
-2.13556
-6.50154
1.8398
-3.35102
-1.91648
3.75628
3.16996
3.75576
1.24518
-3.34087
7.29921
-8.20975
-1.8914
-3.52877
5.34328
-0.817699
3.34741
-6.87619
-2.21438
4.88131
-0.836318
-4.04499
0.836876
-4.35791
1.64556
-6.00347
5.15592
-5.57485
2.18815
-9.76853
-5.1998
-5.12638
-2.22954
-5.23625
-7.60425
5.37471
-1.84973
5.46905
-8.56901
7.73269
-3.47982
8.85452
-5.43339
-1.0331
5.82664
1.34585
10.2004
0.173753
-4.70218
-1.88803
3.94814
-2.06011
1.31648
-3.57994
0.3682
2.48784
3.46898
-6.4989
-0.0832753
-4.78546
-3.92511
7.93503
5.61758
11.6493
1.23553
9.11585
-1.18082
10.3514
4.13441
4.36714
-3.02934
4.53331
1.01898
4.49575
-0.834961
2.83218
1.80954
1.80739
0.83128
2.32832
1.41293
3.25178
0.151152
-2.06336
4.6353
-8.65483
-0.990304
-8.06888
1.1292
5.82605
-4.69685
3.08762
-0.971369
1.02752
0.120246
-1.63798
1.51773
-2.79861
-2.00025
-0.346683
-1.62558
2.35989
1.87427
-2.01321
-0.785403
0.339205
-3.84421
3.06239
-3.04795
-0.314308
6.00305
-2.75736
0.290489
-1.07423
-2.27559
-2.81576
2.72989
6.17653
0.291099
3.11226
5.19518
3.10185
0.238754
3.90079
-5.65828
-3.54443
-5.86516
-0.358792
4.34923
1.7931
7.9601
5.85084
5.03314
-1.84304
-10.0528
6.5483
-2.01499
5.23517
-1.19018
-4.8133
4.96595
2.31319
-5.59419
0.0193398
-4.79396
-6.80894
-0.553801
8.28649
-9.64658
8.61347
5.79078
1.36627
-4.40265
-0.723733
4.22625
0.140887
10.4923
-1.18187
-6.7419
7.92377
-4.64418
3.65388
0.789826
2.75365
2.30756
1.33619
-5.40571
-10.1026
-1.91738
-1.55453
-4.30425
0.465664
-2.33994
6.27326
-2.61938
3.93923
5.30438
6.3319
-2.14984
-4.17653
6.4628
-2.52357
3.80833
)
;

boundaryField
{
    wall-4
    {
        type            calculated;
        value           uniform 0;
    }
    velocity-inlet-5
    {
        type            calculated;
        value           uniform -3.75095;
    }
    velocity-inlet-6
    {
        type            calculated;
        value           uniform -5.62643;
    }
    pressure-outlet-7
    {
        type            calculated;
        value           nonuniform List<scalar> 8(3.08075 5.96557 3.73786 9.70081 8.82643 4.83408 6.96982 9.39803);
    }
    wall-8
    {
        type            calculated;
        value           uniform 0;
    }
    frontAndBackPlanes
    {
        type            empty;
        value           nonuniform 0();
    }
}


// ************************************************************************* //
