/*--------------------------------*- C++ -*----------------------------------*\
| =========                 |                                                 |
| \\      /  F ield         | OpenFOAM: The Open Source CFD Toolbox           |
|  \\    /   O peration     | Version:  4.0                                   |
|   \\  /    A nd           | Web:      www.OpenFOAM.org                      |
|    \\/     M anipulation  |                                                 |
\*---------------------------------------------------------------------------*/
FoamFile
{
    version     2.0;
    format      ascii;
    class       volVectorField;
    location    "35";
    object      U;
}
// * * * * * * * * * * * * * * * * * * * * * * * * * * * * * * * * * * * * * //

dimensions      [0 1 -1 0 0 0 0];

internalField   nonuniform List<vector> 
918
(
(0.985093 -0.000544948 0)
(0.00478953 2.96626 0)
(-0.0288657 0.811791 0)
(0.979828 0.00240965 0)
(-0.0934348 1.60206 -2.15753e-20)
(-0.0070473 2.94891 -1.16579e-18)
(0.828785 1.18857 1.51511e-19)
(0.314125 0.150905 -7.16371e-21)
(0.999905 -0.000304767 0)
(0.0403106 0.868418 0)
(0.00522389 0.678919 0)
(0.73102 -0.0106939 0)
(0.0114755 2.93018 0)
(0.00278247 2.79496 0)
(-0.0196971 3.15412 3.10158e-19)
(-0.00665687 1.82772 -3.85578e-20)
(0.391203 0.0498146 4.72822e-19)
(0.180109 1.20896 9.54121e-20)
(0.961993 0.0038889 0)
(0.00102853 0.63039 0)
(0.0765285 0.186176 -3.38952e-19)
(1.00217 -0.00520295 0)
(1.00076 -0.0101599 0)
(0.975965 -0.00653512 0)
(0.577567 -0.0273919 0)
(0.0182034 2.6374 0)
(-0.014892 2.91019 4.14598e-19)
(-0.0295982 0.800857 0)
(-0.10803 0.998831 0)
(-0.0268568 0.793969 0)
(-0.204517 2.57136 0)
(-0.133741 1.78623 1.67391e-20)
(-0.0776457 1.6091 0)
(-0.0204647 2.98751 -4.2176e-23)
(-0.0169849 3.0054 9.26081e-19)
(0.00201539 3.00016 0)
(0.870471 -0.00880158 0)
(0.436462 0.971577 9.84049e-20)
(0.80451 1.2041 -1.37804e-19)
(0.952655 1.04165 1.71779e-19)
(0.675279 1.30052 -3.46183e-20)
(0.673206 1.28849 2.05666e-19)
(0.358405 0.235183 6.98486e-21)
(0.327845 0.123987 0)
(1.13519 0.575307 0)
(0.326592 0.229387 3.19188e-20)
(0.28034 0.157657 -3.31422e-20)
(0.919507 -0.00726992 0)
(1.00028 0.000147698 0)
(0.999915 0.000338823 0)
(1.00352 -0.00768209 0)
(1.00096 -0.0009476 0)
(1.00019 2.19789e-05 0)
(0.0653497 1.7853 -3.85535e-19)
(0.0276994 1.03796 0)
(0.0699726 0.930224 0)
(0.0171633 0.989465 0)
(0.0289083 0.808512 0)
(0.0212102 1.9915 0)
(0.0119985 0.832315 0)
(0.0329307 0.696266 0)
(-0.00185811 0.830133 0)
(0.00110336 0.679712 0)
(0.836682 -0.0141797 0)
(0.849894 0.0275691 0)
(0.766109 -0.00127057 0)
(0.823646 0.036217 0)
(0.698576 -0.0135904 0)
(0.0153296 3.00066 4.24646e-19)
(0.0117066 3.00832 0)
(0.00651667 3.00256 0)
(0.0141268 2.99719 4.78516e-24)
(0.00837319 2.95854 -6.41794e-19)
(0.0151932 2.98192 0)
(0.011192 2.90368 0)
(0.0253925 2.93056 9.61923e-25)
(0.00497535 2.82481 0)
(0.0311343 2.91604 0)
(-0.0051177 2.74469 0)
(0.304066 3.54712 0)
(-0.145769 3.62412 0)
(0.135728 3.24603 -2.8629e-19)
(-0.0106658 2.98462 0)
(-0.185033 2.354 0)
(-0.0465966 2.02559 3.80195e-20)
(0.0108698 1.89297 -3.93341e-20)
(0.486906 0.146552 -1.63712e-19)
(0.385268 0.0324683 -1.57996e-19)
(0.47165 0.167685 -4.92101e-19)
(0.374594 0.0723689 -3.24746e-19)
(0.186482 0.930585 0)
(0.247672 1.346 -1.2305e-19)
(0.362233 1.29811 2.09672e-19)
(0.987371 0.00824472 0)
(0.941305 0.00549137 0)
(1.00031 0.000430937 0)
(1.00326 0.00949537 0)
(1.00287 0.00785523 -1.27002e-18)
(0.991774 0.00988489 9.69782e-19)
(0.000514142 0.782271 0)
(-0.00328166 0.641467 0)
(0.0104663 0.827649 0)
(-0.0177451 0.778631 0)
(0.00838851 0.629495 0)
(0.127125 0.194542 1.05108e-19)
(0.180327 0.175432 0)
(0.993352 -0.00825936 0)
(0.954454 -0.00616163 0)
(0.776706 0.0444034 0)
(0.714109 0.0565929 0)
(0.656662 -0.0235672 0)
(0.953123 -0.00780963 0)
(0.626819 0.0741071 0)
(0.45221 -0.00612435 6.88436e-19)
(-0.0367282 2.86429 3.1991e-19)
(0.0425649 2.90862 0)
(0.0547714 2.88468 0)
(-0.00439502 2.6982 0)
(-0.0137927 2.98511 3.93476e-19)
(-0.0181101 2.89513 0)
(-0.0158525 2.98802 -1.22e-18)
(-0.0132472 2.92535 4.18476e-19)
(-0.0385167 1.15699 0)
(-0.099304 1.30327 0)
(-0.0592978 1.99188 -1.03992e-21)
(-0.0818295 1.89748 0)
(-0.0611355 1.72985 0)
(0.937819 -0.00774133 0)
(0.856643 -0.00797249 0)
(0.862853 0.00610872 0)
(0.948969 -0.00785497 0)
(0.883509 -0.00741169 0)
(0.545246 1.16625 -1.24498e-19)
(0.595149 1.20556 0)
(0.404038 0.924064 1.73638e-20)
(0.343947 0.779137 0)
(0.915453 1.07803 -4.43448e-20)
(1.02362 0.882828 8.83184e-20)
(0.363144 1.38935 0)
(0.529886 1.36329 0)
(0.534154 1.31686 0)
(0.118382 0.208254 -1.39067e-19)
(0.395121 0.224175 0)
(0.360831 0.111822 9.1416e-20)
(0.998946 0.936185 0)
(1.06841 0.788221 0)
(1.09069 0.729546 -6.04385e-20)
(1.11431 0.630356 0)
(1.15573 0.412292 2.35601e-20)
(0.957525 -0.00853004 0)
(0.962281 -0.0102902 0)
(0.901866 -0.00736754 0)
(0.984327 -0.0092009 0)
(0.974791 -0.00937425 0)
(0.937402 -0.00600159 0)
(1.00017 0.00215234 0)
(1.00087 0.00141988 0)
(0.999871 0.00090792 0)
(0.0268022 2.05431 2.09813e-19)
(0.0991055 1.73602 0)
(0.0115209 2.16306 3.3962e-19)
(0.0471763 1.84876 -2.93164e-19)
(0.100637 1.21821 -7.73628e-20)
(0.04032 1.10356 0)
(0.116446 1.07067 0)
(0.0109839 0.940238 0)
(0.0169612 0.769672 0)
(-0.00541028 2.20106 -8.79778e-22)
(0.0274733 1.98072 0)
(-0.00819569 2.17592 -4.74552e-20)
(0.0298837 1.9922 9.04686e-20)
(0.0148436 0.898208 0)
(0.0136229 0.862158 0)
(0.0273546 0.733917 0)
(0.00219236 0.825274 0)
(-0.0146349 0.663101 0)
(0.934284 0.00884194 0)
(0.841121 -0.0148156 0)
(0.924839 -0.0013795 0)
(0.838414 -0.0120697 0)
(0.811465 0.00177234 0)
(0.902038 0.0190074 0)
(0.879444 0.0231711 0)
(0.788209 0.000642764 0)
(0.00431544 3.06446 -3.78508e-21)
(0.0168758 3.05762 0)
(0.0153746 2.96901 0)
(0.0089742 2.87623 0)
(0.962047 3.98347 0)
(1.3066 3.24616 4.43314e-19)
(0.0695149 3.07676 0)
(-0.0244047 2.90773 0)
(0.0424117 1.49863 0)
(-0.0526852 2.1162 0)
(-0.127358 1.86021 0)
(-0.154784 2.51843 2.27865e-20)
(-0.149871 2.45776 0)
(-0.201582 2.50635 0)
(0.0199817 1.96829 7.93592e-22)
(-0.0160507 2.09033 3.7222e-20)
(-0.0295668 2.05541 4.01034e-20)
(0.0157663 1.93993 0)
(0.51197 0.120773 2.45445e-19)
(0.398606 0.0118538 -2.41224e-19)
(0.271518 1.56471 0)
(0.243948 0.718716 -1.34653e-19)
(0.176619 1.65663 -4.48437e-19)
(0.201529 1.1872 4.49457e-19)
(0.90173 0.00590051 0)
(0.967369 0.010686 0)
(0.974404 0.010664 0)
(0.923202 0.00593242 0)
(-0.00408042 0.826637 0)
(0.00802255 0.801451 0)
(0.00283897 0.654408 0)
(0.280812 0.226092 2.93987e-19)
(0.232506 0.20674 -3.47749e-19)
(0.239253 0.171729 0)
(1.07407 0.0815542 1.49648e-20)
(1.05165 0.035662 0)
(0.995211 0.0367968 0)
(0.893281 -0.00865272 0)
(0.535996 0.0904674 0)
(0.563405 0.0706635 -1.10306e-18)
(0.419723 0.00218945 4.14209e-19)
(0.00919963 2.98194 3.35832e-19)
(-0.0321187 2.86759 1.98779e-20)
(0.00179453 3.0496 -7.9796e-21)
(0.0208548 3.0432 2.94081e-19)
(-0.0153676 2.99631 1.3707e-20)
(-0.0127462 2.94949 -5.52254e-23)
(-0.0175398 3.01151 -2.51e-19)
(0.0141956 3.0231 1.80625e-19)
(0.00669005 3.03667 -2.93728e-19)
(0.932094 -0.00252545 0)
(0.93847 -0.00351631 0)
(0.843207 -0.00740516 0)
(0.956473 0.0114571 0)
(0.942892 0.0127414 0)
(0.881308 0.00556136 0)
(0.918263 0.0155448 0)
(0.926542 0.0145542 0)
(0.838528 0.00359651 0)
(0.759711 1.43258 8.58954e-22)
(0.802687 1.52444 0)
(0.227063 0.359336 3.51837e-20)
(0.241617 0.709694 2.81575e-19)
(0.290447 0.767546 -1.67129e-19)
(0.305637 0.565434 3.25463e-19)
(0.32832 0.806499 7.20278e-19)
(0.130931 0.237391 1.61119e-19)
(0.443274 0.191743 3.44228e-19)
(0.418771 0.211535 8.92457e-20)
(0.373522 0.0919172 1.71435e-19)
(1.14692 0.469002 -1.63371e-20)
(1.15252 0.265614 -2.00517e-20)
(0.00239198 2.20187 1.37049e-19)
(0.0499692 1.91603 0)
(0.960697 0.0283966 0)
(0.936602 0.0112957 0)
(0.860585 -0.0184349 0)
(0.0110828 3.07413 0)
(0.0204834 2.944 5.39998e-19)
(0.0171745 2.95617 0)
(0.00674099 2.8506 -5.38167e-19)
(0.00582724 3.09153 1.28121e-19)
(0.00589736 3.08216 0)
(0.887722 1.82806 -6.22468e-20)
(1.2715 2.3791 9.72357e-20)
(0.867927 1.93213 -4.57262e-19)
(0.0202249 2.98184 -2.96365e-19)
(0.036384 3.00271 0)
(-0.0328413 2.87998 0)
(-0.00991519 2.15198 -2.46411e-21)
(-0.0135357 2.12314 -7.77512e-20)
(0.0246718 1.98594 -1.4476e-21)
(0.27685 1.38095 4.39816e-19)
(0.196426 0.513434 -2.99313e-19)
(0.0526833 1.98288 3.44458e-19)
(0.154241 1.87655 -4.09975e-19)
(0.147542 1.46395 4.04421e-20)
(0.00329119 3.11772 -7.91457e-19)
(0.0162901 3.11785 8.89825e-19)
(-0.00968836 2.98055 3.65201e-19)
(-0.00367102 2.97765 -3.49104e-19)
(-0.0217184 2.88205 -3.72147e-19)
(0.00769068 3.09814 -9.56242e-19)
(0.000844429 3.10657 9.608e-19)
(0.288302 0.725366 0)
(0.252031 0.721989 -5.81024e-19)
(0.118795 0.245421 2.58163e-19)
(0.346958 0.925689 4.80496e-19)
(0.178616 0.27472 -7.41869e-19)
(1.15081 0.174226 4.41066e-20)
(1.15554 0.315286 0)
(1.13447 0.124856 -2.27957e-20)
(-0.00374338 2.21122 -1.16023e-21)
(-0.00436138 2.21348 0)
(0.033454 1.95697 0)
(0.349443 1.28299 -1.58162e-19)
(0.370585 1.11894 -3.4219e-19)
(0.185473 0.362621 6.10529e-19)
(1.00553 -0.0111902 0)
(1.0075 -0.00744599 2.36068e-19)
(0.0333098 1.20645 0)
(0.00378442 1.05627 0)
(1.00199 0.00344449 7.98837e-22)
(1.00379 0.0100232 4.77264e-19)
(-0.126492 2.52731 -3.02645e-20)
(-0.102207 2.53116 0)
(0.0349817 3.17741 2.16742e-19)
(0.387283 3.48218 0)
(1.15186 0.645866 -4.28758e-20)
(1.01319 0.0136091 -7.59409e-22)
(1.02118 -0.0107556 0)
(1.00175 9.93306e-05 2.55995e-23)
(0.0968922 1.34528 0)
(0.155842 2.57853 0)
(0.0168184 1.29928 0)
(0.000974098 2.62872 4.9979e-20)
(-0.024151 2.5779 3.90868e-20)
(1.00383 0.0282295 1.01449e-21)
(1.06141 0.00300014 0)
(1.09285 0.0208679 0)
(-0.0482774 1.96948 0)
(-0.030927 2.56732 0)
(0.038459 1.22254 0)
(0.300048 1.45796 -3.80319e-20)
(1.01123 -0.00990577 0)
(1.00939 -0.0153626 0)
(1.00239 0.000612151 2.99814e-19)
(1.00538 -0.00481102 -3.55943e-19)
(1.0012 -0.00106002 0)
(0.109833 1.69142 0)
(0.0854259 1.30955 0)
(0.0283374 1.53444 0)
(0.034037 1.19402 0)
(0.0449626 1.09041 0)
(0.00909892 1.04091 0)
(1.03407 -0.00702671 0)
(1.02111 0.0161454 -3.62448e-22)
(0.805206 1.25192 6.86141e-20)
(1.00224 0.000369432 -2.99245e-19)
(1.00402 0.00532797 3.55463e-19)
(1.00118 0.00211747 0)
(1.0135 0.0105605 2.97048e-19)
(1.00856 0.00866363 -3.59232e-19)
(1.0093 0.0156558 0)
(-0.0598305 2.58437 0)
(-0.0878537 2.55224 3.88675e-20)
(-0.0675805 2.56296 -2.89381e-20)
(1.21949 0.244421 3.19837e-19)
(1.15162 0.0741996 0)
(0.0456479 3.07521 -4.50208e-19)
(0.0655648 2.85232 -3.19549e-20)
(0.143374 3.19581 6.81744e-19)
(0.141151 3.22488 -1.02551e-19)
(0.133348 3.23732 0)
(0.0196524 3.13673 1.20652e-19)
(0.076277 3.16167 4.39525e-19)
(0.0693191 3.18592 -2.29327e-19)
(0.0232808 3.12923 0)
(0.664157 0.300142 0)
(0.576287 0.346774 0)
(1.0998 0.66962 1.12201e-19)
(1.12838 0.804065 -1.24288e-19)
(1.16614 0.556494 0)
(1.21227 0.505036 0)
(1.01637 0.0136774 -5.61271e-19)
(1.01515 0.0148415 7.0361e-19)
(1.02508 -0.0102354 0)
(1.02306 -0.0125157 0)
(1.00642 0.00256581 0)
(1.01013 0.00358369 0)
(1.00461 0.00187414 0)
(1.0099 0.00604347 0)
(1.008 0.0063023 0)
(1.00443 0.00437064 0)
(0.0864008 1.34076 0)
(0.0791219 1.31309 0)
(0.116101 1.37673 0)
(0.132593 1.39489 0)
(0.147512 2.60175 0)
(0.188913 2.66313 -2.11199e-19)
(0.0981064 2.65973 0)
(0.0927829 2.65991 1.12393e-19)
(0.042664 2.68665 -1.11203e-19)
(0.0438941 1.30856 0)
(0.000203087 1.2301 0)
(0.0313238 1.31807 0)
(0.0427312 1.26383 0)
(-0.00827594 1.98655 -3.38801e-20)
(-0.0283019 2.60737 3.62046e-20)
(-0.0163893 2.67044 5.13242e-20)
(-0.0211016 2.6808 0)
(-0.0313492 2.61026 -9.12606e-20)
(-0.0291286 2.60216 -5.68818e-20)
(0.00203735 1.9878 2.64621e-20)
(-0.02368 2.4125 -4.68495e-20)
(-0.0235762 2.43011 -6.10038e-20)
(1.01273 0.03543 5.63444e-19)
(1.00828 0.0176991 -7.0171e-19)
(1.00481 0.0416855 -5.67311e-19)
(0.984854 0.0218784 7.19637e-19)
(1.06244 0.00707279 0)
(1.04784 -0.00941868 0)
(1.091 0.0306461 0)
(1.07192 0.0108725 0)
(1.06963 -0.00109986 0)
(1.13179 0.0748885 0)
(1.10611 0.0391146 0)
(1.11015 0.0261054 0)
(-0.136859 2.48852 -3.96137e-21)
(-0.0180453 2.2371 0)
(-0.113682 2.40397 0)
(-0.0453783 2.58458 2.19486e-20)
(-0.0340002 2.59506 -1.02015e-21)
(0.0546331 1.74577 1.68447e-20)
(0.0619441 1.63854 -1.71787e-20)
(0.0608175 1.41598 0)
(0.0643109 1.41707 0)
(0.0879135 1.41517 0)
(0.0449865 1.24909 0)
(0.0323901 1.10444 0)
(0.378207 1.4746 5.20724e-20)
(0.422886 1.4797 3.94693e-20)
(0.592804 2.44119 -1.07566e-19)
(0.405673 2.54061 3.18531e-19)
(0.350319 2.07319 4.09394e-20)
(1.02105 -0.00823838 0)
(1.01544 -0.00992982 0)
(1.01493 -0.0160978 0)
(1.00739 -0.00130166 0)
(1.00493 -0.00107146 0)
(1.00771 -0.00467053 0)
(1.00917 -0.00380001 0)
(1.01406 -0.00455317 0)
(1.02189 0.0161526 5.52724e-19)
(1.01828 0.0162505 -7.00847e-19)
(1.02223 0.0180864 -5.52723e-19)
(1.01996 0.0170718 6.93916e-19)
(0.771381 1.30208 0)
(0.709989 1.35527 5.91751e-20)
(0.872445 1.21284 6.76392e-21)
(0.932531 1.15377 -8.99614e-21)
(1.15652 2.60282 1.91511e-19)
(0.816075 0.101572 2.72244e-19)
(1.14755 0.100565 0)
(1.19724 0.183471 -2.56252e-19)
(1.18929 0.137992 -1.0818e-20)
(1.00369 0.139167 0)
(0.159623 2.9607 2.49522e-19)
(0.115678 2.86832 -6.00237e-19)
(0.0303259 2.37943 3.74038e-19)
(0.0962365 0.0138568 -1.60685e-19)
(0.336074 3.42416 -6.70634e-20)
(0.197357 3.32037 0)
(0.228766 3.35633 8.72768e-20)
(0.256195 3.0413 -7.89247e-19)
(0.360002 3.20201 0)
(0.00553255 3.12074 2.27298e-20)
(0.0161337 3.12921 -2.69729e-19)
(0.0142658 3.12505 3.95579e-19)
(0.0349081 3.14018 0)
(0.0332704 3.15021 0)
(1.19085 2.64287 0)
(0.538 0.844545 -2.36862e-19)
(1.05649 0.976802 2.68131e-20)
(0.960939 1.06977 0)
(0.807919 0.948092 -6.36755e-20)
(1.04366 0.879618 1.08943e-20)
(0.352539 0.409541 -4.26744e-19)
(0.700668 0.327832 -8.59875e-21)
(0.677115 0.244184 1.93972e-19)
(0.587858 0.394034 1.42727e-20)
(0.506087 0.35224 -5.75885e-19)
(0.67077 0.348452 0)
(0.710246 0.426508 3.27253e-19)
(0.715776 0.420571 0)
(0.623266 0.380772 0)
(0.604404 0.293896 0)
(0.788957 0.609567 2.00896e-19)
(1.20127 0.274489 -2.75236e-19)
(1.20588 0.410334 0)
(1.2302 0.349079 0)
(0.75609 0.195416 2.89739e-19)
(0.83946 0.539767 -1.81117e-19)
(0.744007 0.514151 3.22635e-19)
(0.943828 0.41909 -3.58686e-19)
(1.02014 0.0147224 3.75687e-19)
(1.0182 0.0143855 -3.78039e-19)
(1.01596 0.0162499 0)
(1.03559 -0.0063365 0)
(1.02941 -0.00883308 -3.55386e-19)
(1.0272 -0.0128272 3.52611e-19)
(1.02516 0.00942671 0)
(1.02396 0.0129626 0)
(1.01121 0.00392774 0)
(1.01435 0.00882553 0)
(1.0147 0.00401232 0)
(1.01384 0.00294078 0)
(0.0585951 1.32304 0)
(0.0616912 1.28539 0)
(0.144757 1.33894 -3.89116e-20)
(0.270742 1.45627 1.74912e-20)
(0.155754 1.42725 3.55294e-20)
(0.194082 1.43812 -5.88227e-20)
(0.160891 1.36697 0)
(0.129281 1.58975 -6.18248e-20)
(0.10938 1.55455 0)
(0.354006 2.02179 -5.91648e-20)
(0.353551 2.36852 2.88304e-19)
(0.187993 1.43894 5.4058e-20)
(0.252586 1.36623 -8.41399e-21)
(0.198869 1.35061 6.77069e-21)
(0.261572 1.31227 -8.37163e-20)
(0.231691 1.57561 0)
(0.259505 1.60696 7.86583e-20)
(0.0286275 2.27594 -2.87243e-20)
(0.0397778 2.67742 0)
(0.0603629 2.41441 9.77412e-20)
(0.0532835 2.43867 0)
(0.0703696 2.67106 -1.24943e-19)
(0.0539782 2.70413 0)
(0.0236586 1.40287 -3.11345e-20)
(0.0297882 1.45105 0)
(0.0315497 1.37186 0)
(0.0214467 1.37753 3.50501e-20)
(-0.00391482 2.65872 -9.6652e-21)
(0.0277682 2.70283 1.29676e-19)
(0.00980888 2.72603 9.58423e-22)
(-0.00496538 1.83795 3.12199e-20)
(-0.0174364 1.67445 1.48248e-20)
(0.016017 1.28938 0)
(0.020795 1.18112 0)
(0.0480824 1.56128 4.2601e-20)
(0.0255675 1.43575 4.08854e-20)
(0.0342612 1.50107 -5.14699e-20)
(0.0360393 1.5855 0)
(-0.0409029 2.30249 -4.2997e-20)
(-0.0633058 2.54497 1.64445e-20)
(-0.0223616 2.45576 -1.05719e-20)
(-0.0177811 1.85242 -3.77103e-20)
(-0.0373646 2.49544 -1.4829e-20)
(-0.0283306 2.44431 6.27995e-20)
(1.0205 0.0208979 -3.73426e-19)
(1.01683 0.0261632 3.7503e-19)
(1.01529 0.0170478 0)
(1.01285 0.0660343 5.22004e-19)
(0.993617 0.0564627 -5.82966e-19)
(0.955517 0.041626 6.52073e-19)
(1.016 0.0994018 -6.99473e-20)
(1.04166 -0.00624523 0)
(1.04975 -0.00227703 3.42127e-19)
(1.03811 -0.0106167 -3.41255e-19)
(1.07002 0.0401586 -2.02919e-20)
(1.06335 0.0209244 1.74698e-19)
(1.06485 0.0501866 0)
(1.05208 0.0457063 -6.24671e-20)
(1.03403 0.0386035 0)
(1.02664 0.0351899 0)
(1.02748 0.0131168 0)
(1.02438 0.0157974 0)
(1.03904 0.0306553 1.28328e-19)
(1.03973 0.024646 -2.82386e-19)
(1.04959 0.0307182 -1.37013e-19)
(1.04731 0.0313362 -1.50361e-19)
(1.06621 0.0586469 2.95541e-19)
(1.09115 0.0466558 0)
(1.10101 0.0885911 0)
(-0.064926 2.29939 -2.12475e-20)
(-0.0193737 2.18375 -3.09535e-21)
(-0.00460328 2.13045 0)
(-0.068102 2.47137 2.20698e-20)
(-0.0797893 2.46103 6.78931e-21)
(-0.0996603 2.47841 -9.44942e-21)
(-0.0307104 2.61394 4.93627e-20)
(-0.0471349 2.55281 -3.89053e-21)
(-0.0311775 2.51282 1.53902e-20)
(-0.0300541 2.60369 -2.72313e-20)
(-0.0314115 2.60718 3.35339e-20)
(0.0908857 1.59886 6.93356e-22)
(0.0414609 1.7514 3.25343e-20)
(0.362257 1.41596 -1.54106e-20)
(0.359875 1.36542 5.44701e-20)
(0.652703 1.40497 -5.71971e-20)
(0.519895 1.47026 -3.82271e-20)
(0.580554 1.44079 0)
(0.581048 2.41846 1.03254e-19)
(0.651829 2.41465 1.54929e-19)
(0.405159 2.517 3.66086e-20)
(0.408225 2.55257 -2.98486e-19)
(0.522337 2.50249 2.81197e-19)
(0.542878 2.45695 0)
(0.479761 2.51288 -2.56183e-19)
(0.23755 2.59019 5.52161e-19)
(0.348121 2.57072 -3.3862e-20)
(0.282124 2.65303 -7.41881e-19)
(0.929953 2.37586 3.60065e-19)
(0.823965 2.38273 0)
(1.01088 0.00019655 1.21023e-20)
(1.01519 -0.00555768 -1.00284e-20)
(1.01758 -0.00354613 -1.80775e-19)
(1.01483 -0.000984943 1.82728e-19)
(1.01215 0.000940025 0)
(0.636613 1.27146 0)
(0.645701 1.16515 0)
(0.743229 1.06821 0)
(0.643313 1.12657 0)
(1.18406 2.61348 2.73744e-20)
(1.07255 2.36015 0)
(0.850537 2.17958 2.06747e-21)
(0.822311 2.44808 0)
(0.92128 2.53812 -2.11223e-19)
(0.958982 2.4975 1.37236e-19)
(0.818489 0.146747 0)
(0.79282 0.125371 7.40479e-20)
(0.927163 0.134248 4.34815e-19)
(0.837377 0.120585 -1.62475e-19)
(0.824589 0.0706329 -4.98607e-19)
(1.06981 0.220009 -4.515e-19)
(0.996465 0.285271 -6.16551e-21)
(0.917142 0.268083 4.06826e-19)
(1.00548 0.207751 3.42812e-19)
(0.953009 0.172214 -5.80304e-19)
(0.922361 0.17467 7.22293e-20)
(0.948797 0.228578 -1.56454e-19)
(0.931393 0.196299 0)
(0.99563 0.171703 2.86819e-19)
(1.04702 0.173043 0)
(1.04513 0.202354 0)
(1.09508 0.108185 1.40317e-19)
(1.07797 0.162362 -5.72573e-21)
(1.06663 0.221503 -7.53032e-20)
(1.09887 0.190349 0)
(1.02269 0.0435178 2.90132e-19)
(1.04293 0.0554978 3.60208e-19)
(1.03385 0.0413602 -2.84905e-19)
(1.04182 0.0611546 -2.41927e-19)
(1.01661 0.06852 -3.68252e-19)
(0.991805 0.143585 0)
(1.00189 0.0977148 0)
(0.973666 0.0660051 -2.31411e-19)
(0.925458 0.084489 9.01743e-20)
(1.03801 0.0947986 3.35446e-19)
(1.06888 0.107917 -4.01131e-19)
(1.07519 0.138467 3.54297e-19)
(1.02981 0.136659 0)
(1.07144 0.100271 0)
(1.05721 0.0803723 -1.62659e-19)
(1.04553 0.0898623 -2.74648e-19)
(0.576287 1.08046 7.84956e-20)
(0.621108 1.39343 -4.26822e-20)
(1.15947 2.74009 -1.2295e-19)
(1.23673 3.07574 4.82739e-21)
(1.24873 2.7115 -1.20707e-19)
(1.27944 2.70948 -8.64779e-21)
(1.1656 2.35221 8.26122e-21)
(1.22515 2.96953 -8.10008e-20)
(1.2466 2.93841 1.607e-19)
(1.24225 3.23128 -6.87314e-20)
(1.36519 2.96729 7.91822e-20)
(1.30262 2.89158 0)
(0.544465 0.848892 -2.30481e-20)
(0.117037 1.25177 2.66472e-19)
(0.549519 0.46495 2.78389e-19)
(0.357289 0.207317 3.02862e-19)
(0.525286 0.400362 3.26138e-19)
(0.554582 0.475199 -5.36798e-19)
(0.544942 0.496716 4.38867e-19)
(0.492444 0.414984 -1.65862e-19)
(0.414196 0.343633 3.73928e-19)
(0.756835 0.252476 -1.65722e-19)
(0.718967 0.285211 0)
(0.710031 0.215304 3.80224e-21)
(0.728849 0.516136 1.72185e-19)
(0.704259 0.479177 -6.29348e-19)
(0.608451 0.483089 5.55158e-21)
(0.627227 0.464432 0)
(0.660979 0.73775 1.87135e-19)
(0.827037 0.777897 1.91996e-19)
(0.743643 0.859856 -2.2311e-19)
(0.861212 0.802707 -7.878e-20)
(0.887771 0.834609 -2.2125e-20)
(0.894687 0.83807 2.27302e-20)
(0.836767 0.633647 -3.35032e-19)
(0.907099 0.706542 7.34269e-20)
(0.960744 0.710873 0)
(0.942623 0.678006 -1.05173e-19)
(1.02159 0.309473 1.05474e-19)
(1.11291 0.283245 1.58095e-19)
(1.0557 0.256499 1.8096e-19)
(1.01054 0.354781 -2.11321e-19)
(1.04464 0.420453 0)
(1.08473 0.401296 0)
(0.908977 0.34369 2.58115e-21)
(0.842439 0.283325 0)
(0.870305 0.276483 1.88971e-19)
(0.907858 0.275327 -3.71454e-21)
(0.933049 0.420705 1.00128e-18)
(0.889745 0.484225 2.61032e-19)
(0.893437 0.447281 -2.73974e-19)
(0.815136 0.432408 2.93896e-19)
(0.800193 0.432967 1.75171e-19)
(0.767569 0.4184 -1.70549e-19)
(1.0279 -0.000645218 2.9814e-19)
(1.01986 -0.000131914 0)
(1.01855 0.000734867 1.97772e-19)
(1.02104 -0.00226316 -4.45857e-19)
(1.02211 0.00426712 2.17199e-19)
(1.02048 0.0110529 -4.5704e-19)
(1.0215 0.0103857 0)
(1.02113 0.0104006 -9.43339e-20)
(1.01591 0.00772519 2.36303e-19)
(1.01688 0.010213 -1.19555e-19)
(1.0176 0.00945135 8.8058e-20)
(0.0299309 1.3032 0)
(0.0392981 1.34204 0)
(0.0412038 1.30211 0)
(0.0505816 1.26837 0)
(0.06506 1.36277 6.01132e-20)
(0.0745883 1.33328 -1.41575e-20)
(0.11517 1.48806 -2.77834e-20)
(0.0847356 1.33266 2.17376e-20)
(0.0303372 1.43786 -5.49778e-20)
(0.0342454 1.42823 4.19286e-20)
(0.0599873 1.3438 -8.6564e-22)
(0.0546495 1.34451 -3.61097e-20)
(0.0512075 1.32506 -5.42535e-21)
(0.0402636 1.34703 -6.29317e-21)
(0.106599 2.38577 -1.0554e-19)
(0.0912268 2.43181 0)
(0.168748 2.07802 6.08114e-20)
(0.109938 1.70709 3.2718e-20)
(0.236082 2.06216 -4.80232e-20)
(0.209664 2.45012 0)
(0.272129 2.40397 -2.8792e-19)
(0.308485 2.40254 2.03692e-19)
(0.225192 2.01533 -1.39352e-19)
(0.150222 2.17986 8.8537e-20)
(0.153799 2.30186 0)
(0.00855024 1.88294 -5.6465e-20)
(-0.0089537 2.41227 -8.64341e-20)
(0.00048631 2.16467 0)
(0.0105777 2.47035 -5.85371e-21)
(0.0201623 2.31896 3.23132e-20)
(0.0179358 1.38715 5.08052e-21)
(0.0190967 1.37957 -7.80397e-20)
(0.0187403 1.3887 1.98128e-20)
(0.0150066 1.38634 2.86277e-20)
(0.0225619 1.40729 0)
(0.0193621 1.36968 0)
(0.0637147 1.25884 3.06086e-20)
(0.0653796 1.37639 -1.07059e-20)
(0.0215458 1.36463 0)
(0.0415003 1.26972 2.03388e-20)
(0.0141281 1.14049 -4.16424e-20)
(1.03933 0.00998195 0)
(1.04516 0.00656898 -3.18538e-20)
(1.03863 0.0200349 -2.27844e-19)
(1.04728 0.0185858 0)
(1.05058 0.0187283 0)
(1.03667 0.0106091 -2.77087e-21)
(1.03138 0.0101393 3.66643e-19)
(1.03186 0.0158213 4.48472e-19)
(1.02588 0.0198052 0)
(1.02356 0.020245 0)
(1.03496 0.0243302 2.28325e-19)
(1.02667 0.0252107 0)
(1.02508 0.0249318 0)
(-0.0464236 2.02094 0)
(0.030514 1.73959 2.61678e-22)
(-0.0112798 1.81649 2.92277e-21)
(0.0735471 1.38157 0)
(0.023139 1.6013 2.04047e-20)
(0.0617615 1.51217 -1.15227e-20)
(0.0947723 1.44982 0)
(0.385162 1.68447 0)
(0.364552 1.28891 -9.82086e-20)
(0.313659 1.34138 0)
(0.421332 1.28574 8.7352e-20)
(0.466533 1.44698 0)
(0.446503 1.39254 -2.71396e-20)
(1.02926 2.68408 -7.76311e-21)
(0.956549 2.41028 -4.39911e-19)
(0.903771 2.18778 5.13025e-19)
(0.837306 2.37512 1.22566e-19)
(0.839008 2.49978 0)
(0.9104 2.49201 0)
(0.908204 2.37151 0)
(0.897866 2.35363 -4.49313e-19)
(0.687163 2.46452 -2.01123e-19)
(0.796032 2.46106 -4.807e-20)
(0.808447 2.4298 3.80825e-20)
(0.68526 2.39018 0)
(0.788945 2.38781 0)
(0.746009 2.39836 -1.67148e-19)
(0.76438 2.49514 0)
(0.614335 1.10394 0)
(0.48188 0.922844 -2.42169e-19)
(0.561297 0.951158 -1.55566e-20)
(0.523401 1.05234 0)
(0.525378 1.00366 3.66641e-19)
(0.767216 0.888441 -6.6988e-20)
(0.774818 1.00714 0)
(0.747375 0.953291 1.03598e-19)
(0.633535 1.04199 0)
(0.641315 0.946182 0)
(1.1651 2.7549 -1.27509e-19)
(1.14178 2.82056 -6.52226e-20)
(0.937759 2.33479 8.61552e-20)
(0.898912 2.31377 -4.8464e-20)
(1.12797 2.72524 0)
(1.08068 2.6938 6.10428e-20)
(1.08676 2.4775 -1.57387e-19)
(0.980381 2.22973 -1.36221e-20)
(0.495656 1.35793 0)
(0.504279 1.07119 -6.87965e-20)
(0.560186 1.14374 0)
(0.865628 0.213005 0)
(0.798381 0.167871 0)
(0.74713 0.140124 0)
(0.858221 0.219231 -2.9866e-19)
(0.774276 0.21383 1.74398e-19)
(0.938641 0.0717253 -1.8743e-19)
(0.95195 0.117026 0)
(0.929704 0.121914 8.03538e-20)
(0.867648 0.0996628 3.22891e-19)
(0.852754 0.0608947 -2.0272e-19)
(1.17263 3.36677 -2.89247e-19)
(1.22396 3.28837 0)
(1.1383 3.38493 -5.732e-19)
(0.638338 3.54325 5.0017e-19)
(0.850425 3.10893 2.30029e-21)
(0.506884 0.855385 2.77697e-19)
(0.415796 0.847117 0)
(0.326458 0.511564 -6.77505e-20)
(0.450678 0.684535 3.87685e-19)
(0.544993 0.477962 -9.53089e-20)
(0.517574 0.526907 1.06661e-19)
(0.652663 0.535557 2.34801e-19)
(0.687619 0.546874 0)
(0.64277 0.615866 0)
(0.598076 0.551574 0)
(0.961654 0.594706 5.83676e-20)
(0.890186 0.532566 -2.52083e-19)
(0.912254 0.564586 2.00728e-19)
(0.948593 0.504479 -1.97248e-19)
(1.05549 0.479143 0)
(1.04642 0.561488 -5.26361e-20)
(0.83948 0.386858 -3.9904e-19)
(0.844896 0.372765 -4.87144e-19)
(0.7922 0.379279 3.0933e-19)
(0.790191 0.353819 -3.13485e-19)
(0.840879 0.309729 -2.46476e-19)
(0.792279 0.30891 3.0342e-19)
(1.02669 0.00527497 -2.32453e-19)
(1.02637 0.00565488 4.81555e-19)
(1.02917 -0.00101728 2.89467e-19)
(1.03283 0.000563294 -3.51885e-19)
(1.03273 0.00711592 0)
(1.02996 0.00792041 -5.76455e-19)
(0.059053 1.63797 1.86435e-20)
(0.0400545 1.56278 0)
(0.086449 1.68704 1.3264e-19)
(0.0924867 1.66657 -1.19338e-19)
(0.092595 1.50558 5.19068e-20)
(0.0838078 1.48997 0)
(0.00493415 1.69524 0)
(-0.0124892 1.50364 -1.18665e-20)
(0.0134968 1.44694 1.0663e-20)
(0.0196422 1.59142 3.37641e-21)
(-0.00468342 1.8925 -2.1135e-20)
(-0.0307181 1.93541 1.2024e-20)
(0.496517 1.37315 -1.67317e-19)
(0.492195 1.38253 1.79595e-19)
(0.444709 1.2836 -5.61176e-20)
(0.435928 1.29141 6.12357e-21)
(0.624131 1.29111 0)
(0.543649 1.37893 6.85649e-22)
(0.561667 1.38902 -6.65391e-22)
(0.454259 1.27074 5.43737e-20)
(0.509899 1.22699 0)
(0.556374 1.18918 0)
(0.649653 2.42302 3.01816e-19)
(0.669335 2.46487 5.83292e-19)
(0.709597 2.47967 -4.00116e-19)
(0.609314 2.46315 -9.24851e-20)
(0.564385 2.54859 1.36951e-19)
(0.524549 2.53021 -3.51952e-19)
(0.972603 2.3743 -2.86514e-19)
(1.00931 2.38553 0)
(0.915795 2.16666 -3.32537e-19)
(1.05067 2.67448 0)
(1.05354 2.66106 0)
(0.605132 2.2556 -9.17053e-20)
(1.02801 3.15855 2.43051e-20)
(0.896002 3.01835 3.24731e-20)
(0.287257 0.914754 0)
(0.326232 0.758546 -1.44262e-19)
(0.464928 0.724707 -1.49351e-19)
(0.401296 1.98371 0)
(0.479328 2.78672 -1.6285e-21)
(0.434841 2.57008 0)
(0.673741 0.674481 -3.95809e-19)
(0.758401 0.685182 5.38025e-19)
(0.786204 0.619905 -5.29193e-19)
(0.665347 0.639851 -5.08926e-20)
(0.715459 0.595842 -2.09854e-19)
(1.01283 2.76478 -1.83556e-20)
(1.04542 2.83352 -8.27127e-20)
(0.655427 2.13923 3.28566e-19)
(0.582965 1.71746 -2.26048e-19)
(0.709858 1.90751 -2.1254e-19)
(0.995157 2.4688 -4.8962e-20)
(0.996396 2.45661 1.40938e-19)
(0.667082 1.87443 1.20764e-20)
(0.458582 1.33692 7.91108e-20)
)
;

boundaryField
{
    wall-4
    {
        type            noSlip;
    }
    velocity-inlet-5
    {
        type            fixedValue;
        value           uniform (1 0 0);
    }
    velocity-inlet-6
    {
        type            fixedValue;
        value           uniform (0 3 0);
    }
    pressure-outlet-7
    {
        type            zeroGradient;
    }
    wall-8
    {
        type            noSlip;
    }
    frontAndBackPlanes
    {
        type            empty;
    }
}


// ************************************************************************* //
