/*--------------------------------*- C++ -*----------------------------------*\
| =========                 |                                                 |
| \\      /  F ield         | OpenFOAM: The Open Source CFD Toolbox           |
|  \\    /   O peration     | Version:  4.0                                   |
|   \\  /    A nd           | Web:      www.OpenFOAM.org                      |
|    \\/     M anipulation  |                                                 |
\*---------------------------------------------------------------------------*/
FoamFile
{
    version     2.0;
    format      ascii;
    class       volScalarField;
    location    "25";
    object      p;
}
// * * * * * * * * * * * * * * * * * * * * * * * * * * * * * * * * * * * * * //

dimensions      [0 2 -2 0 0 0 0];

internalField   nonuniform List<scalar> 
918
(
0.225393
0.891156
0.0130493
0.224567
-0.00780538
0.858828
-0.838163
0.399633
0.20521
-0.411684
-0.436665
0.195683
0.719472
0.485475
-1.45304
-0.13211
0.35436
-0.712938
0.204505
-0.0252417
0.457035
0.211714
0.214741
0.205139
0.269387
0.474725
0.599716
0.0164637
0.00544436
0.00253543
-0.00609679
-0.0436947
-0.0497427
0.742178
0.79281
0.815368
0.174451
0.0119914
-0.67471
-0.760684
-0.749722
-0.884251
0.392957
0.397953
-0.500329
0.402425
0.41505
0.192967
0.204532
0.205481
0.206633
0.205537
0.206982
0.104869
-0.415865
-0.457938
-0.396101
-0.392677
-0.21957
-0.459772
-0.444512
-0.424294
-0.381595
0.127586
0.19319
0.19043
0.200458
0.209991
0.82993
0.800935
0.826569
0.743536
0.758392
0.697149
0.66908
0.506134
0.527398
0.471802
0.461083
-1.88197
-2.84997
-0.861021
-0.606471
-0.00222229
-0.177493
-0.200647
0.344515
0.347697
0.352556
0.369077
0.749443
-0.699396
-0.860199
0.204263
0.203246
0.211491
0.211842
0.209
0.207087
-0.0442959
-0.0922937
-0.0120418
-0.0101576
-0.0162542
0.441322
0.436219
0.206833
0.203473
0.215687
0.237497
0.228279
-0.0292057
0.275065
0.291693
0.284852
0.458961
0.455601
0.462959
0.574039
0.537378
0.637445
0.660698
0.00398826
0.00420821
-0.119327
-0.0633394
-0.0804171
0.170572
0.162775
0.188345
0.177637
0.179937
-0.0712668
-0.205254
0.104922
0.130366
-0.583816
-0.661309
-0.764778
-0.786784
-0.901898
0.253463
0.382925
0.384296
-0.507624
-0.439011
-0.578148
-0.353083
-0.425039
0.183323
0.190318
0.184653
0.20026
0.195025
0.196639
0.208853
0.205918
0.20743
0.165541
0.264888
0.0398389
0.0129458
-0.573136
-0.468244
-0.556307
-0.380323
-0.383328
-0.212649
-0.187606
-0.229601
-0.238519
-0.397887
-0.431902
-0.411057
-0.342652
-0.281163
0.121238
0.111839
0.139669
0.146233
0.185717
0.186536
0.188496
0.187377
0.619333
0.641711
0.650269
0.623913
-3.87728
-6.95376
-0.275332
-0.133978
-0.000357318
0.00281126
0.00143537
0.00720694
0.00202879
-0.00411521
-0.283511
-0.282509
-0.246572
-0.269039
0.328511
0.332368
0.656578
0.643846
0.625531
0.576145
0.192459
0.194658
0.200089
0.195596
-0.227859
-0.140037
-0.175
0.41144
0.426555
0.423798
-0.0642889
-0.14924
0.0171259
0.0439125
0.313577
0.297518
0.313941
0.346682
0.383002
0.667108
0.68514
0.685321
0.693503
0.738602
0.751572
0.717302
0.15178
0.160837
0.156445
0.191625
0.189188
0.190183
0.185584
0.187022
0.184027
-0.377974
-0.741287
0.205695
0.226473
0.180473
0.202816
0.333428
0.399423
0.363614
0.374671
0.378143
-0.284725
-0.351476
-0.0396858
-0.0898345
0.0679198
0.100551
0.082329
0.590261
0.552072
0.6021
0.57504
0.535775
0.561137
-0.781091
-2.03568
-1.28641
0.226361
0.0343474
0.123567
-0.236805
-0.283198
-0.273105
0.617217
0.712549
0.310428
0.492638
0.543309
0.424244
0.455294
0.510679
0.435084
0.469252
0.504085
0.485665
0.225691
0.215306
0.20255
0.459472
0.506113
-0.169762
-0.217832
-0.278879
-0.180087
-0.140525
-0.144432
0.6772
0.566523
0.642858
0.203036
0.203645
0.00227814
-0.00320699
0.207758
0.20799
-0.00195127
-0.018492
0.106967
-1.15328
-0.191372
0.195785
0.186465
0.203119
-0.407774
0.0731625
-0.480482
-0.269845
-0.312127
0.193093
0.137196
0.103015
0.00734181
-0.105027
-0.0747565
-0.53026
0.200524
0.198695
0.202641
0.203755
0.204356
-0.0021582
-0.00790165
-0.00208831
-0.0597163
-0.0215622
-0.01842
0.168505
0.184176
-0.488623
0.202795
0.204959
0.204797
0.19759
0.203535
0.201381
-0.0737843
-0.0398258
-0.087887
-0.0733506
0.0418511
0.359276
0.466316
0.32329
0.0898621
-0.157045
0.255207
0.323037
0.223455
0.38459
0.37056
0.391523
-0.126174
-0.283759
-0.121939
-0.17909
0.194046
0.192429
0.18481
0.181876
0.198108
0.196209
0.200703
0.197558
0.200449
0.201877
-0.355302
-0.388254
-0.398036
-0.468132
0.0332952
0.293246
-0.0465456
-0.0024037
-0.151034
-0.515655
-0.436308
-0.474061
-0.441329
-0.44062
-0.317684
-0.287575
-0.254248
-0.352487
-0.398944
-0.49468
-0.406555
-0.410612
0.187648
0.186496
0.192697
0.199136
0.146235
0.14979
0.118734
0.136564
0.12164
0.0701301
0.102612
0.07936
0.00179925
0.0145528
0.0045634
-0.119796
-0.228887
-0.0478926
-0.00742897
-0.00376981
-0.0299119
-0.0362937
-0.110276
-0.139572
-0.491716
-0.609088
0.648182
0.59612
-0.222115
0.189592
0.196108
0.192765
0.197619
0.200702
0.201631
0.199402
0.196023
0.185078
0.187123
0.182934
0.183363
-0.42601
-0.568115
-0.394221
-0.454154
-0.202263
0.306021
0.0536205
-0.0173745
-0.0146772
0.203272
0.622298
0.397912
0.402272
0.442465
-0.682817
-0.290348
-0.613829
-0.0192682
-0.200839
0.354656
0.407788
0.432313
0.375986
0.326454
-0.582166
0.204382
-0.370231
-0.327993
-0.131847
-0.23258
0.406745
0.354878
0.362894
0.378749
0.400102
0.357446
0.336917
0.335086
0.374243
0.379309
0.171917
-0.0385404
-0.0960861
-0.125112
0.340047
0.212928
0.267205
0.184209
0.188732
0.191638
0.190116
0.173247
0.180451
0.176158
0.181513
0.184287
0.194084
0.194677
0.189641
0.192154
-0.371043
-0.373941
-0.330802
-0.451368
-0.441947
-0.501185
-0.373149
-0.253914
-0.280511
-0.0904354
-0.00553979
-0.285526
-0.382937
-0.350511
-0.336262
-0.152564
-0.099655
-0.219921
-0.138583
-0.127832
-0.153411
-0.0368415
-0.0419206
-0.501508
-0.44136
-0.41831
-0.467956
-0.308991
-0.202792
-0.195304
-0.494168
-0.614675
-0.42032
-0.343613
-0.338916
-0.378062
-0.39768
-0.308802
-0.0922403
-0.116669
-0.194969
-0.430485
-0.323362
-0.38212
0.183259
0.18458
0.184603
0.196421
0.207732
0.22329
0.188941
0.166682
0.158274
0.16111
0.1365
0.146288
0.141152
0.153497
0.172921
0.179711
0.179924
0.182105
0.166474
0.167758
0.156036
0.158813
0.137954
0.120418
0.109051
-0.0454425
-0.0334325
-0.0488026
-0.0674463
-0.00442663
-0.0214655
-0.315429
-0.208635
-0.265714
-0.232103
-0.348955
-0.0406375
-0.0665717
-0.402483
-0.32404
-0.513158
-0.544443
-0.61929
0.555763
0.651475
0.489833
0.269712
0.271742
0.500659
0.593752
0.249595
0.400883
0.441733
0.227253
0.4757
0.194647
0.194175
0.191683
0.191143
0.192762
-0.340494
-0.235528
-0.22635
-0.168866
-0.0580147
0.0661842
-0.0399639
-0.173783
-0.029215
-0.0270217
0.299639
0.317676
0.26153
0.287934
0.287333
0.114832
0.188558
0.244479
0.20112
0.242324
0.261818
0.225956
0.252477
0.204681
0.160752
0.162151
0.10847
0.121509
0.101018
0.0851401
0.184644
0.162649
0.17248
0.164528
0.185113
0.212622
0.205805
0.233439
0.24619
0.17083
0.13345
0.139722
0.169406
0.132228
0.14545
0.158585
-0.116545
-0.184069
-0.151923
-0.437298
-0.346631
-0.422271
-0.454725
-0.341402
-0.0457219
-0.793
-0.847366
-1.40878
0.142511
0.674237
0.365321
0.308948
0.397951
0.371883
0.373693
0.411112
0.413587
0.329357
0.349283
0.353439
0.298326
0.32353
0.354572
0.350672
0.186043
0.0542313
0.0442463
0.0105226
-0.105516
-0.0726789
0.128257
0.0438855
-0.0269001
-0.010453
0.152106
0.049351
0.111462
0.139584
0.0619832
0.0356567
0.224899
0.296701
0.286611
0.26133
0.178377
0.188237
0.218988
0.25381
0.278865
0.317343
0.181667
0.186941
0.188137
0.185833
0.183321
0.185965
0.185825
0.188453
0.189439
0.192478
0.191325
-0.411965
-0.405444
-0.357879
-0.386038
-0.327526
-0.328051
-0.277683
-0.294619
-0.323377
-0.31182
-0.347116
-0.356174
-0.364566
-0.347338
-0.202343
-0.209309
-0.237911
-0.256664
-0.079788
0.0586847
0.111915
-0.00234463
-0.0894165
-0.0689112
-0.0430522
-0.325405
-0.335021
-0.365914
-0.285815
-0.268319
-0.518603
-0.477505
-0.482203
-0.635834
-0.529305
-0.382741
-0.198869
-0.250389
-0.298445
-0.289326
-0.224818
0.168554
0.162423
0.163882
0.158767
0.157437
0.170085
0.174102
0.176137
0.180897
0.182031
0.174212
0.177958
0.181238
-0.24891
-0.110579
-0.158876
-0.222321
-0.146019
-0.091676
-0.122239
-0.218686
-0.284665
-0.283782
-0.32711
-0.449963
-0.394395
0.144014
0.131758
0.168121
0.352909
0.210007
0.136672
0.21742
0.314346
-0.0776086
0.118561
-0.0511238
0.5293
0.418155
0.556933
0.184844
-0.111967
0.0440502
0.107251
-0.112623
-0.0357921
-0.0119261
-0.109507
-0.0831613
-0.064064
0.041631
-0.0664674
-0.0912667
-0.343521
-0.153781
-0.0178414
-0.03472
0.0913202
0.16078
-0.0994576
-0.166292
-0.194538
0.290028
0.311114
0.334121
0.299566
0.325865
0.247521
0.237558
0.257017
0.267269
0.261218
-1.13085
-0.847302
-1.75366
-1.04123
-0.608149
0.175656
0.132749
0.424074
0.311365
0.383426
0.365158
0.333311
0.294754
0.303056
0.339623
0.0471595
0.149249
0.125604
0.131439
0.0292104
-0.0264299
0.267289
0.258721
0.299243
0.321512
0.287468
0.323629
0.179459
0.1789
0.178657
0.175427
0.17335
0.175382
-0.244102
-0.281855
-0.232118
-0.245617
-0.27216
-0.297516
-0.403171
-0.37752
-0.293498
-0.284103
-0.285371
-0.355232
-0.19434
-0.251308
-0.311339
-0.288465
-0.341248
-0.409154
-0.428044
-0.329309
-0.243138
-0.236958
0.0636569
0.299979
0.127041
0.292521
0.162102
0.193471
0.171409
0.170297
0.209776
0.0593503
0.127747
-0.0753637
-0.606378
-0.487347
0.400782
0.469274
0.248715
0.111036
-0.177678
-0.0369251
0.217187
0.147812
0.191453
0.261343
0.254384
-0.338892
-0.30179
0.00302857
0.204195
-0.107569
-0.169245
-0.158144
0.000164718
-0.0471246
)
;

boundaryField
{
    wall-4
    {
        type            zeroGradient;
    }
    velocity-inlet-5
    {
        type            zeroGradient;
    }
    velocity-inlet-6
    {
        type            zeroGradient;
    }
    pressure-outlet-7
    {
        type            fixedValue;
        value           uniform 0;
    }
    wall-8
    {
        type            zeroGradient;
    }
    frontAndBackPlanes
    {
        type            empty;
    }
}


// ************************************************************************* //
