/*--------------------------------*- C++ -*----------------------------------*\
| =========                 |                                                 |
| \\      /  F ield         | OpenFOAM: The Open Source CFD Toolbox           |
|  \\    /   O peration     | Version:  4.0                                   |
|   \\  /    A nd           | Web:      www.OpenFOAM.org                      |
|    \\/     M anipulation  |                                                 |
\*---------------------------------------------------------------------------*/
FoamFile
{
    version     2.0;
    format      ascii;
    class       surfaceScalarField;
    location    "25";
    object      phi;
}
// * * * * * * * * * * * * * * * * * * * * * * * * * * * * * * * * * * * * * //

dimensions      [0 3 -1 0 0 0 0];

internalField   nonuniform List<scalar> 
1300
(
3.75095
5.62643
-5.7587
3.75095
-5.68229
5.62643
-4.5323
4.5323
-1.14991
1.14991
1.8765
1.87445
-3.04254
3.04254
-2.2696
2.2696
-2.55635
2.55635
-5.24647
5.24647
-5.06861
5.06861
4.67018
-4.67018
-4.33044
4.33044
-1.58694
1.58694
-4.01214
4.01214
3.16916
-3.16916
-3.9848
3.9848
-0.364014
0.364014
-0.553143
4.3041
3.19781
3.19781
-2.23178
2.23178
-4.86017
4.86017
6.21781
-6.21781
8.67892
-8.67892
-2.92022
-3.40581
1.40163
-8.61524
-4.28066
-4.28066
-8.44023
8.44023
-2.8138
2.81263
2.94205
-2.94205
-1.85796
1.85796
-4.43454
-0.0977574
-4.43454
4.5593
-0.0270042
4.5593
-1.28092
0.131013
-1.28092
4.01612
-4.01612
0.978263
0.171643
0.978263
3.06485
-3.06485
-1.87719
3.75369
1.87376
-1.8717
6.1758
-1.87925
3.7537
-5.83474
5.83474
-3.28781
0.245272
-3.28781
2.80464
0.237897
2.80464
-6.34041
6.34041
-2.25494
-0.0146577
-2.25494
2.5263
-0.256703
2.5263
2.83875
-2.83875
-2.64334
0.0869892
-2.64334
2.48577
0.0705827
2.48577
0.353705
5.27272
-5.98014
8.79277
-5.27272
0.0262512
5.20839
0.0380877
5.20839
-5.10607
0.0374541
-5.10607
5.01044
0.058168
5.01044
4.75123
-0.081045
4.75123
-4.79088
0.120698
-4.79088
-3.18571
-3.807
-4.30628
-0.0241571
-4.30628
-1.59475
0.00780921
-1.59475
1.54452
0.0424145
1.54452
-3.47958
3.47958
-4.36225
0.350111
-4.36225
3.12328
0.0458813
3.12328
1.86904
1.88192
5.61999
-5.61999
2.45083
-3.61917
-0.365639
-3.61917
-4.30733
-4.37159
4.30733
-0.322528
-0.633875
0.269862
-0.633875
3.16003
0.037783
3.16003
2.40094
0.0848325
-2.40094
0.16916
3.26135
-3.26135
1.61306
0.618723
1.61306
-5.56843
5.56843
4.95162
0.0588228
-4.95162
0.0914544
6.15704
0.0607743
6.15704
-6.1998
-0.0180157
-6.1998
3.09263
-6.49845
-3.60285
4.32296
0.00747934
-4.32296
0.0423019
2.91115
0.0309028
2.91115
-2.92013
2.92013
-2.98289
0.0408378
-2.98289
-2.25057
0.392607
-2.25057
1.56302
0.294935
1.56302
-4.30366
-0.130882
-4.30366
-4.49516
0.132907
4.49516
0.0641422
1.04868
-1.04868
-1.42536
0.144442
-1.42536
-4.15198
-0.151685
4.15198
-0.135857
-3.88028
-0.135837
-3.88028
-3.0233
0.04041
3.0233
0.0415496
3.11294
0.0470854
-3.11294
0.0480913
-1.87088
3.7528
-1.88007
3.75383
-5.46691
-0.367828
-5.46691
6.14366
-0.308918
6.14366
3.66024
0.351901
-3.66024
0.372431
2.62543
0.179211
2.62543
-6.47773
0.137318
-6.47773
5.9329
0.407513
5.9329
2.43161
0.193824
-2.43161
0.17667
2.80709
-0.280795
2.80709
2.85373
-0.0149879
2.85373
-2.85185
0.0131069
-2.85185
2.79909
-2.79909
2.72568
0.073415
-2.72568
0.0823333
-11.1327
11.1147
-0.0351976
-11.0975
5.17319
5.17319
4.17002
0.581209
4.17002
-5.00406
0.213183
-5.00406
3.05279
-6.65565
3.73866
-6.92438
3.74048
-12.3557
3.31257
-7.11957
4.82187
-4.82187
4.4202
0.401677
-4.4202
0.113914
-1.61025
0.0155022
-1.61025
-2.87353
-0.606053
-2.87353
4.14204
-0.662462
4.14204
-3.02875
3.02875
-3.07742
0.0486737
3.07742
0.0458529
3.24353
-0.436434
-3.24353
-0.375639
0.809053
0.16921
-0.809053
0.175178
3.46964
-0.208296
3.46964
-3.05999
-0.201356
-3.05999
-1.6192
0.00895568
1.6192
-0.00614688
-5.81783
0.249394
-5.81783
-11.1908
0.0932214
-11.1527
-6.10658
-6.10658
2.33365
11.1264
-2.8818
0.0299496
2.8818
0.0293489
2.97582
0.0529327
-2.97582
0.0556881
-2.86126
0.0621651
2.86126
0.0588713
-2.64144
0.390874
-2.64144
-1.15401
1.15401
-1.34708
0.193072
1.34708
0.215941
1.28621
-0.237537
1.28621
1.50239
0.0421334
-1.50239
0.0770274
-3.77021
-0.110075
-3.77021
6.37469
-0.231033
6.37469
-2.9268
-0.133192
2.9268
-0.0730662
-0.0332897
11.148
-5.1399
0.0338332
5.1399
-11.2088
11.2426
-3.27362
0.632178
3.27362
0.896399
5.29175
0.276688
-5.29175
0.287684
5.35331
0.579585
-5.35331
0.531437
-2.39209
-0.481432
-2.39209
-4.89274
-0.574168
4.89274
-0.7507
-11.4743
-0.203122
11.6774
-11.4162
6.02095
0.13609
-6.02095
11.3787
-1.03779
-0.0108887
1.03779
0.116223
1.56112
-0.274904
1.56112
3.65896
-0.189321
-3.65896
-0.111242
-6.51258
0.0348525
6.51258
-0.137893
-1.95285
-0.439247
1.95285
-0.391729
-4.26672
4.3045
1.90908
-2.81152
-3.68693
-7.18311
1.85142
1.90138
4.30225
-7.7854
-4.57032
-7.74309
7.26692
-6.97924
-9.29521
9.21417
7.52484
-7.66068
-5.7869
5.83276
6.48187
-6.44032
1.87898
1.87471
7.91075
-7.66548
-15.6109
15.2431
5.8631
-5.87776
16.0982
-15.9609
-17.9444
18.524
-5.75538
5.84237
-6.68026
6.69336
-6.86483
6.79176
-2.62456
-4.29981
10.9359
-10.96
9.50493
-9.87057
-8.50482
8.85493
3.38189
0.922609
3.42898
-1.88243
3.76141
-1.87127
3.78035
3.82647
-6.45104
2.82917
-6.5161
5.4422
4.06273
-5.11967
-2.06344
-5.91683
5.94774
-5.82655
5.88542
8.89991
-8.99767
-1.88517
3.75988
-1.86866
3.77005
-3.4265
-2.3604
3.38062
0.921632
6.48445
4.45142
-6.49193
-1.25117
-7.7905
7.60118
-8.04366
7.8423
-0.443218
5.81779
-5.37457
4.41695
-1.54582
7.3636
5.72111
5.93429
5.86597
-5.58928
1.11327
-6.48784
-6.39638
-2.54624
2.69068
2.51818
-2.34653
5.90849
1.61635
5.77264
-5.55911
-2.10157
-5.66918
3.82213
2.01063
3.8708
4.07519
2.40668
4.1156
3.0313
-3.03467
0.00337088
-3.05649
6.08779
0.725216
-5.41689
-4.49526
4.89716
3.01359
5.13506
-5.48847
-2.17701
-5.11604
-9.47871
-6.13218
-10.0529
10.0847
5.15838
9.77576
-11.9364
11.7985
3.69921
2.16389
3.44251
-4.01049
-1.86727
-3.83382
13.098
-3.55315
-9.54489
-10.618
-7.3264
10.2105
5.88772
10.6348
7.88913
11.1663
4.76082
8.33722
-10.6485
3.32214
-3.88284
-1.87254
-3.80051
3.73409
2.10828
3.80468
-4.20382
-2.47644
-4.17387
-4.24203
-2.62279
4.25702
2.43634
-4.31482
-3.72884
4.44801
2.34375
3.65725
-8.22757
3.46233
-7.76214
-8.15543
-2.80459
-8.04151
4.99669
1.56137
-6.55806
-1.45435
10.0339
-5.97116
7.97045
-5.06048
-4.81009
-5.43612
-6.78189
-1.72293
-6.64899
-8.80182
8.32039
-9.13572
8.47325
12.7431
-5.71577
-7.02731
-3.96823
-2.47209
3.92013
-0.491155
-3.7121
3.71547
0.0493156
3.82966
4.75227
4.26112
-3.88878
-1.93777
-3.83309
3.83836
2.04706
3.90052
6.73963
2.16028
6.71262
-6.4187
-2.57897
-6.54958
9.07257
-8.67997
2.9623
-2.95335
5.25458
2.58772
-5.04628
-2.74422
6.09227
-3.0605
-3.03177
-12.2081
10.5859
1.62214
-4.84447
-0.427527
-0.0635136
-5.50366
-3.79155
5.38296
0.551324
11.1373
7.34571
-5.51161
5.76101
6.16584
6.22466
-0.171721
5.80104
-5.16886
5.3495
-2.43263
-2.91687
5.28377
-5.43546
-1.26581
-5.22363
3.95782
0.337178
1.75974
-1.48988
-2.03582
-0.510423
-1.95879
1.49906
1.01911
1.66827
0.996256
1.69443
-2.93095
0.521093
2.40986
-1.9347
-1.82544
-3.67816
-1.0428
4.72096
5.5833
2.01787
-5.47206
-0.197122
2.73572
-2.69331
-0.801597
-2.87656
2.10134
-2.90293
-3.54676
-1.89676
5.44352
-3.37142
-0.461676
3.31848
0.55232
-3.8245
-2.09233
3.78367
0.33193
-3.12315
6.18746
-3.0643
-5.06092
2.52974
3.55805
4.54036
-4.78936
2.44571
2.34365
-1.23131
4.0046
1.13046
4.18381
-6.72015
4.54314
5.72082
3.13412
-6.07272
0.95668
-5.76347
8.44543
-7.28832
-1.15711
4.1246
4.32083
7.20327
5.53981
-5.76621
12.9695
-1.15924
-6.12908
6.92271
-3.78859
4.73309
-8.52168
-10.2729
4.14381
-9.20056
11.0179
-1.81738
-3.60021
-8.33622
12.8008
-1.20851
-11.5923
8.56725
-4.22778
-4.61622
8.844
-7.78093
6.4835
-1.26915
-5.21435
-10.2188
-5.74213
10.1839
1.61464
-11.0671
14.3892
-2.72986
3.37356
0.0689459
3.09277
3.27036
-5.9248
2.65444
4.51057
-5.77972
1.6428
-7.5676
-6.77528
11.2281
-4.45281
-9.57987
-9.93645
0.356581
1.80005
12.5892
-9.68918
6.41001
3.27918
3.3137
0.586821
-3.38712
-0.413393
0.322636
4.54489
-4.86753
4.12731
4.21214
3.43283
1.11206
3.83393
2.1138
-3.86328
-0.310585
-4.13433
1.51154
-1.69799
-3.6566
5.16814
-4.09206
0.43546
-2.73663
-3.55011
6.28674
-4.60917
3.04056
3.1469
5.08762
-4.92869
1.37858
-2.42794
-2.50075
2.71348
-4.41147
1.96385
3.20429
4.3076
0.578765
6.21495
5.01313
-7.77633
0.0141881
9.46455
-8.21338
3.20839
7.95789
-9.6184
-0.318052
-8.35957
-0.0465514
-5.92461
-6.60461
5.02081
-6.74374
-3.50087
6.13462
0.578006
-6.19876
-0.450226
-5.98177
-2.82005
-6.42102
-3.05706
-6.07866
-8.82327
-1.63568
-7.18759
6.68471
-6.6179
-3.43497
7.3686
1.10465
-7.35894
7.34805
-7.42469
7.14978
0.0944005
3.62107
4.35552
1.88343
-2.38975
4.27318
-5.0282
7.18849
-8.39589
3.36769
3.90329
-6.48226
-4.4926
5.04036
4.03221
5.33529
8.9624
-10.5228
1.5604
-10.8741
12.1642
-1.29008
-16.6281
5.75404
-7.66574
2.70082
0.261486
2.71632
0.673802
2.41286
-3.08666
-2.27955
-2.28569
-2.29595
-3.34649
5.64244
1.11689
-3.35897
2.24208
-3.46214
4.57903
-0.0632101
-3.29576
5.23673
-2.82387
5.49822
-3.52535
1.97287
3.2684
5.59171
-2.32331
4.28373
-1.696
1.80698
-4.13029
-1.53951
-3.01175
5.12003
-3.27499
3.71045
-0.252499
3.96295
-4.04927
0.988763
-0.616433
3.59571
3.76487
4.23717
-3.12511
2.92489
-4.62089
-1.2054
-4.04213
-0.837842
-0.324311
-3.77566
4.09998
6.07485
-6.39916
-5.2564
9.57989
-4.32349
7.74445
-5.40696
-2.33749
-4.26501
-4.41495
3.87414
1.9269
9.67135
0.233468
-5.64043
-4.93539
-4.03899
3.22203
2.12746
-1.99415
3.61629
2.05766
-0.297922
0.569468
1.0988
1.88244
-1.31298
0.215899
1.66654
-1.27398
2.00849
0.727232
-2.05062
0.0918344
-1.38124
3.48258
1.02862
-2.04773
0.734758
1.01631
-3.44893
4.79963
-2.46797
-2.33166
5.81594
1.13073
-3.5987
4.0929
-3.75573
2.30816
-3.35096
-1.29054
-5.04626
-3.42991
-2.48145
4.72353
-3.161
5.17887
1.17676
-4.98175
6.15851
-3.53267
1.63591
-3.05004
3.77728
-1.04635
-2.00369
2.7509
2.69262
-2.90788
0.0313161
-0.156971
2.29935
-2.45632
-0.603589
-2.53828
-4.57332
4.90525
-2.10654
4.55225
2.16664
-1.91374
6.46599
1.81186
-3.7256
-3.24906
-3.71074
-1.38195
3.15842
-0.0399771
-3.79384
-5.25433
3.60002
0.583799
-6.98191
7.67699
-0.695074
-3.96833
-0.574812
4.69941
-5.76195
-0.0177652
-4.11915
3.55783
4.68829
5.27209
-11.4514
-0.140899
-6.29298
1.2007
-7.49368
5.52154
-3.64331
7.78713
-10.4308
6.99585
-9.32617
6.63002
-0.863665
6.73175
-4.07731
2.81315
-8.55527
-6.94064
4.90601
-2.74212
4.97496
-3.37202
8.34698
-6.10188
5.48302
2.86396
-1.94449
-3.49163
-4.64772
2.70323
0.835299
3.92806
4.97118
-2.85737
4.66059
2.22732
-4.65526
-2.18415
-6.50413
1.84887
-3.35723
-1.91093
3.7598
3.17669
3.76351
1.25906
-3.35012
8.8397
-8.48311
-4.38689
-2.21773
5.50824
-2.805
5.22646
-7.44419
-0.698146
4.9301
-0.906128
-4.02397
0.785668
-4.28654
1.65322
-5.93976
5.09052
-5.54075
2.16335
-9.82908
-5.19559
-5.07937
-2.2264
-5.19829
-7.66626
5.43986
-1.91223
5.43583
-8.67743
7.77131
-3.48675
8.92662
-5.39743
-1.02359
5.78916
1.36062
10.2872
0.131362
-4.62397
-1.88957
4.00891
-2.11933
1.33246
-3.6443
0.364603
2.42037
3.39556
-6.3782
-0.104058
-4.72802
-3.92271
7.95492
5.65718
11.732
1.20922
9.15349
-1.19856
10.3627
4.13673
4.35267
-3.02515
4.58556
1.07482
4.44251
-0.847809
2.82068
1.86851
1.87632
0.816987
2.29618
1.46869
3.28495
0.198284
-2.08741
4.63966
-8.67865
-1.00077
-8.09745
1.11672
5.83559
-4.71887
3.17612
-1.04866
1.05679
0.110452
-1.7199
1.60945
-2.80642
-2.01782
-0.35128
-1.61801
2.35277
1.86456
-2.00149
-0.804926
0.328575
-3.75849
3.02239
-2.99107
-0.29845
5.86006
-2.71352
0.257208
-1.07761
-2.28108
-2.7915
2.69967
6.17533
0.290656
3.11103
5.19591
3.10358
0.246204
3.88653
-5.70391
-3.68106
-5.84481
-0.323277
4.37614
3.58809
9.00108
6.45205
3.64704
-3.79714
-12.2803
6.53394
-1.94839
5.24386
-1.21989
-4.71987
4.94219
2.2463
-5.52019
-0.0205547
-4.74042
-6.68881
-0.589607
8.36091
-9.69763
8.67404
5.85399
1.3336
-4.38702
-0.692347
4.19395
0.158719
10.5214
-1.17825
-6.80392
7.98218
-4.65734
3.65657
0.829819
2.78647
2.43927
1.39061
-5.41332
-10.1322
-1.92022
-1.52871
-4.25189
0.469071
-2.33364
6.29333
-2.63676
3.95583
5.34542
6.40221
-2.17438
-4.22478
6.49787
-2.54204
3.86018
)
;

boundaryField
{
    wall-4
    {
        type            calculated;
        value           uniform 0;
    }
    velocity-inlet-5
    {
        type            calculated;
        value           uniform -3.75095;
    }
    velocity-inlet-6
    {
        type            calculated;
        value           uniform -5.62643;
    }
    pressure-outlet-7
    {
        type            calculated;
        value           nonuniform List<scalar> 8(5.7587 5.68229 6.32604 7.21361 6.99271 6.69549 6.79146 7.05306);
    }
    wall-8
    {
        type            calculated;
        value           uniform 0;
    }
    frontAndBackPlanes
    {
        type            empty;
        value           nonuniform 0();
    }
}


// ************************************************************************* //
