/*--------------------------------*- C++ -*----------------------------------*\
| =========                 |                                                 |
| \\      /  F ield         | OpenFOAM: The Open Source CFD Toolbox           |
|  \\    /   O peration     | Version:  4.0                                   |
|   \\  /    A nd           | Web:      www.OpenFOAM.org                      |
|    \\/     M anipulation  |                                                 |
\*---------------------------------------------------------------------------*/
FoamFile
{
    version     2.0;
    format      ascii;
    class       volVectorField;
    location    "25";
    object      U;
}
// * * * * * * * * * * * * * * * * * * * * * * * * * * * * * * * * * * * * * //

dimensions      [0 1 -1 0 0 0 0];

internalField   nonuniform List<vector> 
918
(
(0.985088 -0.000568248 0)
(0.00477427 2.96626 0)
(-0.0156839 1.52457 0)
(0.979828 0.00241037 0)
(-0.000941273 1.50548 1.51929e-20)
(-0.00704476 2.94891 -7.90003e-19)
(0.84663 1.20087 3.03724e-19)
(0.381718 0.18007 -3.54016e-21)
(0.999904 -0.000304313 0)
(0.0396136 0.888183 0)
(-0.0344132 0.64442 0)
(0.730529 -0.00919023 0)
(0.0114971 2.93019 0)
(0.00213099 2.79504 0)
(-0.0190229 3.1594 4.78629e-19)
(0.0222723 1.30453 5.81704e-20)
(0.489077 0.0773201 2.20486e-19)
(0.171988 1.24524 2.61387e-19)
(0.962112 0.00385231 0)
(-0.0199386 1.14395 0)
(0.114408 0.217356 -1.83117e-19)
(1.00221 -0.00520621 0)
(1.00075 -0.0101498 0)
(0.975976 -0.00652848 0)
(0.631973 -0.0369761 0)
(0.0184404 2.63418 0)
(-0.0150617 2.91029 2.58011e-19)
(-0.0293533 1.53273 0)
(-0.0435889 1.6852 0)
(-0.0255852 1.53011 0)
(-0.00619383 1.9316 0)
(0.021438 1.54218 -1.17815e-20)
(0.0116363 1.36621 0)
(-0.0204621 2.9875 -2.75381e-23)
(-0.0169898 3.0054 6.27566e-19)
(0.00201425 3.00016 0)
(0.86968 -0.0093519 0)
(0.432798 0.972387 -1.17685e-20)
(0.813652 1.22204 -4.16787e-19)
(0.961003 1.05101 3.93746e-19)
(0.682364 1.32427 -7.01263e-20)
(0.688841 1.31166 3.95396e-19)
(0.420803 0.27083 3.4519e-21)
(0.409383 0.166391 0)
(1.15714 0.582861 0)
(0.387728 0.276159 1.60842e-20)
(0.329422 0.17744 -1.67012e-20)
(0.919519 -0.00734122 0)
(1.0003 0.000157554 0)
(0.999916 0.000346708 0)
(1.00349 -0.00769382 0)
(1.00096 -0.000978943 0)
(1.00019 8.57568e-06 0)
(0.0666251 1.76501 -8.11312e-20)
(0.0344046 1.00667 0)
(0.0965208 0.970449 0)
(0.0326552 0.953521 0)
(0.040229 0.810645 0)
(-0.0781499 1.88134 0)
(0.00415809 0.75042 0)
(0.0068289 0.624873 0)
(-0.0360941 0.781008 0)
(-0.0390615 0.736615 0)
(0.827497 -0.0126858 0)
(0.85032 0.0217584 0)
(0.760142 0.00352121 0)
(0.831439 0.0219213 0)
(0.712753 -0.0142555 0)
(0.0153428 3.00065 2.82847e-19)
(0.0117 3.0083 0)
(0.00650601 3.00259 0)
(0.0141356 2.99718 3.11355e-24)
(0.00838881 2.95852 -4.27434e-19)
(0.0152015 2.98195 0)
(0.0112045 2.90368 0)
(0.0254581 2.93049 5.37523e-25)
(0.00480199 2.82514 0)
(0.0316214 2.91568 0)
(-0.00560002 2.74427 0)
(0.30721 3.55628 0)
(-0.145806 3.634 0)
(0.137845 3.25199 -4.418e-19)
(-0.00985267 2.98881 0)
(-0.0785806 1.86607 0)
(0.0728354 1.48184 -5.73695e-20)
(0.00336702 1.26192 8.17221e-20)
(0.56068 0.158764 -7.6042e-20)
(0.488347 0.0537329 -7.363e-20)
(0.543418 0.181902 -2.28989e-19)
(0.472095 0.100972 -1.54533e-19)
(0.183096 0.882718 0)
(0.250967 1.37613 -2.676e-19)
(0.373584 1.33921 4.42871e-19)
(0.987486 0.00820397 0)
(0.941542 0.0054576 0)
(1.00031 0.00042997 0)
(1.00326 0.00949339 0)
(1.00287 0.00781406 -4.25404e-19)
(0.991788 0.00989729 3.24664e-19)
(-0.04763 1.24903 0)
(-0.0464154 1.05118 0)
(-0.0540744 1.52313 0)
(-0.0399643 1.3617 0)
(-0.0128682 1.24412 0)
(0.174844 0.228785 5.6598e-20)
(0.220895 0.20846 0)
(0.993343 -0.00823851 0)
(0.954454 -0.00605867 0)
(0.797562 0.0270116 0)
(0.76525 0.0388103 0)
(0.690667 -0.0299755 0)
(0.969609 -0.000364829 0)
(0.701821 0.0616033 0)
(0.542685 -0.0116744 2.91015e-19)
(-0.0360876 2.86456 1.25001e-19)
(0.0432014 2.90792 0)
(0.0562 2.88378 0)
(-0.0055301 2.69725 0)
(-0.0135602 2.98522 2.35171e-19)
(-0.0181899 2.89534 0)
(-0.0158161 2.98803 -7.49391e-19)
(-0.0132621 2.92537 2.60227e-19)
(-0.0682013 1.75368 0)
(-0.0673211 1.78279 0)
(0.0533838 1.50059 1.24148e-21)
(0.034776 1.49906 0)
(0.00440734 1.33953 0)
(0.937176 -0.00785337 0)
(0.855635 -0.00868421 0)
(0.863074 0.00690527 0)
(0.948714 -0.00773696 0)
(0.883288 -0.00775693 0)
(0.542994 1.16848 1.0227e-20)
(0.594644 1.20941 0)
(0.397122 0.921309 2.1363e-21)
(0.337196 0.779888 0)
(0.924864 1.08859 -1.13185e-19)
(1.03573 0.890317 2.33848e-19)
(0.376272 1.41855 0)
(0.539801 1.39122 0)
(0.536472 1.35402 0)
(0.114835 0.177714 -5.48453e-20)
(0.466836 0.258864 0)
(0.450596 0.151963 4.43081e-20)
(1.01133 0.943624 0)
(1.08485 0.794429 0)
(1.10658 0.73698 -2.07444e-19)
(1.1359 0.636151 0)
(1.18468 0.419115 2.48562e-20)
(0.957363 -0.0082776 0)
(0.96218 -0.0102763 0)
(0.901789 -0.00755159 0)
(0.984297 -0.00918305 0)
(0.974719 -0.00941814 0)
(0.937395 -0.00588077 0)
(1.00016 0.00214672 0)
(1.00086 0.00142743 0)
(0.999868 0.000912256 0)
(0.0257897 2.02581 5.39456e-20)
(0.101292 1.70598 0)
(0.021271 2.12535 3.83901e-20)
(0.0280929 1.84222 -5.03906e-21)
(0.12492 1.24028 -2.16448e-19)
(0.0481549 1.10453 0)
(0.0890982 1.10552 0)
(0.00135925 0.884835 0)
(-0.00248127 0.745844 0)
(-0.0527216 2.10643 1.27588e-21)
(-0.036523 1.92971 0)
(-0.087265 2.00663 8.16142e-20)
(-0.103921 1.75131 -1.64165e-19)
(0.0213955 0.841943 0)
(0.0259542 0.788646 0)
(0.0052004 0.683685 0)
(-0.0549419 0.863877 0)
(-0.0483962 0.815069 0)
(0.924221 0.00997109 0)
(0.83635 -0.00884344 0)
(0.918685 -0.00132112 0)
(0.834408 -0.0127495 0)
(0.810626 0.00484497 0)
(0.903289 0.0177146 0)
(0.880051 0.0209383 0)
(0.784898 0.00449907 0)
(0.00428136 3.06434 -2.32821e-21)
(0.0168376 3.05783 0)
(0.0153893 2.96906 0)
(0.00887203 2.87624 0)
(0.967615 3.99651 0)
(1.31339 3.25869 4.91305e-19)
(0.0700509 3.07959 0)
(-0.025039 2.90955 0)
(-0.102475 1.77394 0)
(-0.107912 1.84651 0)
(-0.0839414 1.8098 0)
(-0.0326608 1.92923 6.67808e-22)
(-0.0908081 1.89325 0)
(-0.0576379 1.88432 0)
(-0.0638538 1.40119 -1.22111e-22)
(-0.00460195 1.54985 -9.87267e-20)
(0.0570549 1.48585 -8.35394e-20)
(-0.0353518 1.27822 0)
(0.591454 0.12754 1.11512e-19)
(0.500835 0.0251364 -1.08811e-19)
(0.267906 1.52484 0)
(0.234167 0.663093 -8.12552e-20)
(0.177688 1.62424 -2.6638e-19)
(0.198622 1.14681 2.67079e-19)
(0.902091 0.00605957 0)
(0.967504 0.0107167 0)
(0.97461 0.0106807 0)
(0.923487 0.00614415 0)
(-0.0714202 0.980888 0)
(-0.058239 1.119 0)
(-0.0641682 0.94223 0)
(0.33694 0.268885 1.47038e-19)
(0.280889 0.245788 -1.78377e-19)
(0.283244 0.193034 0)
(1.09645 0.0866654 -1.83113e-21)
(1.07715 0.0395485 0)
(1.00689 0.0413575 0)
(0.905265 0.0041886 0)
(0.617272 0.0972644 0)
(0.644035 0.0699515 -4.69411e-19)
(0.520584 0.00652415 1.79629e-19)
(0.00932112 2.98217 1.60937e-19)
(-0.0321796 2.86809 1.97694e-20)
(0.00194315 3.04956 -5.04558e-21)
(0.0207346 3.04331 1.88315e-19)
(-0.0153978 2.99629 8.66698e-21)
(-0.0127836 2.94948 -3.5202e-23)
(-0.0175406 3.01153 -1.64034e-19)
(0.0141635 3.0232 1.17984e-19)
(0.00663869 3.03659 -1.87939e-19)
(0.929415 -0.00222607 0)
(0.937134 -0.00381086 0)
(0.842022 -0.00767606 0)
(0.956694 0.0113429 0)
(0.943269 0.0126276 0)
(0.881824 0.0056651 0)
(0.919107 0.0152001 0)
(0.927127 0.0147414 0)
(0.838395 0.00573651 0)
(0.761389 1.43851 1.52015e-19)
(0.805384 1.5316 0)
(0.257537 0.404441 1.20036e-20)
(0.201373 0.664954 1.00349e-19)
(0.300021 0.74903 -5.69188e-20)
(0.288675 0.612442 1.03424e-19)
(0.302413 0.748066 3.06708e-19)
(0.11193 0.214276 8.50496e-20)
(0.520397 0.205552 1.65619e-19)
(0.496245 0.232854 4.17572e-20)
(0.467977 0.129374 8.4275e-20)
(1.17502 0.474246 1.22838e-19)
(1.18576 0.27237 1.28276e-19)
(0.00748281 2.13576 -4.90714e-21)
(0.0438398 1.9179 0)
(0.959726 0.032915 0)
(0.927383 0.0182452 0)
(0.861043 -0.00636859 0)
(0.010872 3.07433 0)
(0.0205012 2.94393 3.17528e-19)
(0.0172284 2.95623 0)
(0.00661241 2.85078 -3.16459e-19)
(0.00561686 3.09111 7.28965e-20)
(0.00611286 3.08232 0)
(0.891517 1.8368 -1.04468e-19)
(1.27834 2.39089 2.35056e-19)
(0.871801 1.94169 -5.91871e-19)
(0.020538 2.983 -1.16326e-19)
(0.0369655 3.00524 0)
(-0.0323112 2.88106 0)
(-0.119177 1.8429 -6.38359e-21)
(-0.0507226 1.69162 1.97771e-19)
(-0.0785367 1.5719 -8.09479e-21)
(0.278419 1.34571 2.64088e-19)
(0.185966 0.455408 -1.80664e-19)
(0.0542209 1.95459 1.78269e-19)
(0.156337 1.84558 -2.30928e-19)
(0.146407 1.42957 3.89429e-20)
(0.00203157 3.11805 -4.23246e-19)
(0.0171246 3.11741 4.75864e-19)
(-0.00952314 2.98094 2.01794e-19)
(-0.00334373 2.97796 -1.77004e-19)
(-0.0215224 2.88245 -2.05632e-19)
(0.00767676 3.09872 -5.33238e-19)
(0.00129499 3.10636 5.33567e-19)
(0.238202 0.666007 0)
(0.207929 0.665159 -1.90105e-19)
(0.14034 0.257904 8.64408e-20)
(0.319447 0.856271 2.52728e-19)
(0.166194 0.24448 -3.88156e-19)
(1.18017 0.177964 -2.34795e-20)
(1.18552 0.320281 0)
(1.16639 0.128133 5.04743e-20)
(-0.0408236 2.15757 1.04014e-21)
(-0.00443934 2.1637 0)
(0.0206184 1.94779 0)
(0.345281 1.23067 -9.60961e-20)
(0.35632 1.05142 -2.0506e-19)
(0.174243 0.328129 3.5193e-19)
(1.00551 -0.0112425 0)
(1.00749 -0.00744017 7.79591e-20)
(-0.0892013 1.70751 0)
(-0.0975412 1.69728 0)
(1.00198 0.00348618 8.16054e-22)
(1.00382 0.0100035 1.59376e-19)
(-0.0252936 1.95086 -8.84204e-22)
(-0.00825484 1.97043 0)
(0.0376423 3.18142 4.26384e-20)
(0.39137 3.4897 0)
(1.1381 0.634442 2.76919e-20)
(1.01329 0.0135363 -7.5767e-22)
(1.02085 -0.0110362 0)
(1.00175 9.93797e-05 3.29802e-23)
(0.111393 1.35357 0)
(0.149688 2.56811 0)
(-0.0158842 1.04178 0)
(-0.0305497 2.66045 -1.0776e-19)
(-0.205508 2.62403 -1.06157e-19)
(1.00914 0.0266737 1.06403e-21)
(1.05702 -0.00665215 0)
(1.0793 0.0241058 0)
(-0.126183 1.84545 0)
(-0.0486738 2.15486 0)
(-0.210499 1.48179 0)
(0.291547 1.46243 -1.80203e-19)
(1.01121 -0.00993532 0)
(1.00934 -0.0154456 0)
(1.00253 0.000604658 9.8735e-20)
(1.00538 -0.00481989 -1.17528e-19)
(1.00123 -0.00109513 0)
(-0.167819 1.79947 0)
(-0.130668 1.7115 0)
(-0.128967 1.76972 0)
(-0.187361 1.49622 0)
(-0.13037 1.61031 0)
(-0.135772 1.56698 0)
(1.03414 -0.00767451 0)
(1.02146 0.0160212 -4.49655e-22)
(0.789278 1.24643 2.07616e-19)
(1.00216 0.000424379 -9.84427e-20)
(1.00407 0.00536234 1.18353e-19)
(1.00117 0.00210118 0)
(1.01343 0.0104714 9.58101e-20)
(1.00848 0.0086006 -1.19248e-19)
(1.00938 0.0155742 0)
(-0.0348596 2.14114 0)
(-0.0210925 2.03838 -2.65989e-20)
(-0.00638785 2.05517 2.26513e-20)
(1.19643 0.251901 -3.4746e-20)
(1.13271 0.083647 0)
(0.0500715 3.0757 -2.08132e-19)
(0.0674675 2.85002 -1.64733e-20)
(0.147956 3.19541 3.4119e-19)
(0.143488 3.22556 3.88908e-21)
(0.135462 3.23886 0)
(0.0206642 3.13766 4.52784e-20)
(0.0796157 3.16166 1.99954e-19)
(0.0715823 3.18765 -8.86926e-20)
(0.0244198 3.12922 0)
(0.665577 0.319062 0)
(0.580328 0.36748 0)
(1.09236 0.657728 -1.05996e-19)
(1.12024 0.795266 1.62949e-19)
(1.15707 0.547392 0)
(1.20457 0.499933 0)
(1.0164 0.0135346 -1.79315e-19)
(1.01513 0.014676 2.23648e-19)
(1.02495 -0.0106646 0)
(1.02276 -0.0129726 0)
(1.0066 0.00231777 0)
(1.01033 0.00344069 0)
(1.00442 0.00171564 0)
(1.00978 0.00613612 0)
(1.00813 0.00611095 0)
(1.0044 0.0042237 0)
(0.0994947 1.35223 0)
(0.0936696 1.30398 0)
(0.119952 1.37854 0)
(0.146515 1.40172 0)
(0.148935 2.58839 0)
(0.193294 2.6418 -8.59523e-20)
(0.10343 2.64774 0)
(0.0829584 2.64788 -6.58442e-21)
(0.0341855 2.67349 9.06761e-20)
(-0.0315352 1.00854 0)
(-0.0993021 0.92514 0)
(0.0947117 1.05929 0)
(0.069798 0.987586 0)
(0.0463974 2.17809 1.59995e-19)
(-0.180268 2.65582 -1.44865e-19)
(-0.0856143 2.7055 -1.59654e-19)
(-0.142108 2.68315 0)
(-0.220738 2.64279 2.76369e-19)
(-0.22533 2.58134 1.79184e-19)
(0.0807139 2.23444 -1.04835e-19)
(-0.149139 2.59092 1.90978e-19)
(-0.0822572 2.56333 1.95055e-19)
(1.01742 0.0349913 1.75286e-19)
(1.01073 0.0223479 -2.16972e-19)
(1.00964 0.0357732 -1.80689e-19)
(0.991588 0.015819 2.32935e-19)
(1.05722 0.000679559 0)
(1.04426 -0.0141149 0)
(1.07821 0.0290059 0)
(1.06298 0.00483364 0)
(1.05955 -0.00259956 0)
(1.11412 0.0836271 0)
(1.09015 0.0464199 0)
(1.09358 0.0381634 0)
(-0.0917147 1.94668 8.26164e-23)
(-0.151087 1.90677 0)
(-0.104286 1.90788 0)
(-0.105036 2.26477 -3.1011e-20)
(-0.0924244 2.2894 2.36508e-21)
(-0.283712 1.85927 -1.31044e-20)
(-0.205997 1.796 1.32039e-20)
(-0.26098 1.62894 0)
(-0.212104 1.68575 0)
(-0.184118 1.70129 0)
(-0.256059 1.39701 0)
(-0.146063 1.2655 0)
(0.37291 1.47483 3.44165e-19)
(0.418345 1.48597 1.35865e-19)
(0.583173 2.42891 -6.33277e-20)
(0.411497 2.52349 1.72587e-19)
(0.347409 2.09073 -2.19718e-20)
(1.02108 -0.00864243 0)
(1.01544 -0.0100981 0)
(1.01476 -0.0160066 0)
(1.00773 -0.00154525 0)
(1.00492 -0.00128144 0)
(1.00767 -0.00479773 0)
(1.00913 -0.00381157 0)
(1.01394 -0.00450495 0)
(1.02239 0.0159523 1.70803e-19)
(1.01814 0.016652 -2.18281e-19)
(1.02339 0.0177084 -1.69599e-19)
(1.02064 0.0171582 2.12791e-19)
(0.757852 1.29945 0)
(0.696061 1.3528 2.51796e-19)
(0.859527 1.20353 1.47908e-19)
(0.92229 1.14412 -1.96693e-19)
(1.15499 2.61232 -2.43038e-19)
(0.837332 0.102612 1.14909e-19)
(1.12797 0.108856 0)
(1.18155 0.186622 3.14659e-20)
(1.16926 0.151114 1.3241e-21)
(0.98986 0.125172 0)
(0.163871 2.96026 3.76773e-20)
(0.121921 2.86704 -2.902e-19)
(0.0347412 2.37289 1.90913e-19)
(0.0989647 0.0725462 -7.45394e-20)
(0.338923 3.43002 -1.82988e-19)
(0.19752 3.32317 0)
(0.230268 3.362 2.38142e-19)
(0.259759 3.04158 -2.7636e-19)
(0.363764 3.20343 0)
(0.0056048 3.12063 1.06733e-20)
(0.0160733 3.12929 -1.39741e-19)
(0.0142565 3.12516 2.04941e-19)
(0.0363925 3.14032 0)
(0.0348362 3.15081 0)
(1.19336 2.65452 0)
(0.548894 0.847126 -9.34813e-20)
(1.04806 0.9689 -8.22523e-20)
(0.953488 1.05675 0)
(0.798784 0.93643 2.22636e-20)
(1.03565 0.866672 1.11236e-20)
(0.372959 0.429641 -2.11754e-19)
(0.700798 0.336654 -9.30861e-21)
(0.688807 0.260039 8.96469e-20)
(0.587701 0.412986 6.98375e-21)
(0.520858 0.371151 -2.86472e-19)
(0.669661 0.361805 0)
(0.699653 0.429133 1.46061e-19)
(0.704227 0.425783 0)
(0.622734 0.397064 0)
(0.614041 0.317004 0)
(0.778582 0.60217 5.06235e-20)
(1.1833 0.274884 1.76379e-20)
(1.19221 0.408704 0)
(1.21503 0.350802 0)
(0.768952 0.20471 1.32317e-19)
(0.825909 0.542603 -7.32719e-20)
(0.734282 0.514467 1.18782e-19)
(0.920873 0.415547 -1.09589e-19)
(1.02035 0.0145966 1.17408e-19)
(1.01832 0.0142573 -1.19924e-19)
(1.01596 0.0161909 0)
(1.03516 -0.00691794 0)
(1.02918 -0.00902455 -1.07333e-19)
(1.027 -0.0136935 1.06372e-19)
(1.02549 0.00908114 0)
(1.02449 0.0121043 0)
(1.01128 0.00375839 0)
(1.01442 0.00864092 0)
(1.01494 0.00347627 0)
(1.01382 0.00276574 0)
(0.0860962 1.33085 0)
(0.0950197 1.22158 0)
(0.140847 1.33656 1.35629e-19)
(0.268088 1.46084 1.03955e-19)
(0.16333 1.43056 2.27738e-19)
(0.19686 1.44124 -3.6809e-19)
(0.176765 1.36604 0)
(0.132298 1.60001 1.18438e-19)
(0.0888368 1.55757 0)
(0.350852 2.04103 3.17504e-20)
(0.354087 2.3788 8.39142e-20)
(0.18119 1.44814 -1.03585e-19)
(0.262988 1.35593 7.77858e-20)
(0.19895 1.34909 -6.23192e-20)
(0.262536 1.2993 1.30547e-19)
(0.237133 1.58447 0)
(0.248406 1.61552 -8.30677e-20)
(0.0445258 2.27665 4.22249e-20)
(0.0414434 2.66995 0)
(0.0571427 2.39497 -7.44792e-20)
(0.0328361 2.41785 0)
(0.0728677 2.65406 6.84564e-21)
(0.0535094 2.69329 0)
(0.0877945 1.4848 2.03395e-19)
(0.224599 1.65365 0)
(0.210927 1.36508 0)
(0.140562 1.31065 -2.27597e-19)
(-0.036107 2.68052 -1.48013e-20)
(0.0381232 2.68609 -1.20726e-19)
(-0.014008 2.72327 -8.59015e-22)
(-0.246188 2.22541 -1.38477e-19)
(0.00328849 2.03606 -8.08377e-20)
(-0.118588 1.00144 0)
(-0.0891375 0.960163 0)
(0.132641 1.6992 -2.02715e-19)
(0.197571 1.4991 -2.16261e-19)
(0.173651 1.67191 2.70299e-19)
(0.103193 1.67853 0)
(-0.258684 2.12465 1.11822e-19)
(-0.218271 2.29444 -4.78949e-20)
(-0.253214 2.34607 1.8457e-20)
(-0.276338 2.15146 1.67336e-19)
(-0.264097 2.49867 4.67991e-20)
(-0.253043 2.53213 -2.08726e-19)
(1.02264 0.0217716 -1.14543e-19)
(1.01973 0.0282676 1.15697e-19)
(1.01625 0.0207539 0)
(1.01611 0.0523552 1.65854e-19)
(0.996353 0.0424157 -1.95095e-19)
(0.96136 0.0196289 2.27225e-19)
(1.01415 0.0836933 -2.14517e-20)
(1.04103 -0.00716213 0)
(1.04746 -0.00472893 9.58085e-20)
(1.03691 -0.0117685 -9.54218e-20)
(1.06539 0.0354929 -5.1965e-21)
(1.05852 0.0138658 4.66746e-20)
(1.06399 0.0453083 0)
(1.05861 0.0390224 -1.73499e-20)
(1.03927 0.0324545 0)
(1.03461 0.0312138 0)
(1.02686 0.0124156 0)
(1.02476 0.0151316 0)
(1.04511 0.0260765 3.62175e-20)
(1.04118 0.0186423 -8.26939e-20)
(1.05332 0.0203811 -3.67479e-20)
(1.05237 0.021954 -4.24446e-20)
(1.06788 0.0550898 7.57136e-20)
(1.07991 0.0510379 0)
(1.08953 0.0931941 0)
(-0.252288 2.09633 3.05796e-20)
(-0.191288 1.94143 1.24711e-21)
(-0.20583 1.97837 0)
(-0.137403 2.09328 -3.0914e-20)
(-0.0880625 1.98534 -1.30341e-21)
(-0.114189 2.02889 3.98295e-21)
(-0.206671 2.56534 -1.64164e-19)
(-0.228721 2.43156 7.85028e-21)
(-0.27112 2.48306 -4.14415e-20)
(-0.167156 2.44377 8.41814e-20)
(-0.174695 2.45286 -9.78411e-20)
(-0.36737 1.75006 -2.17141e-21)
(-0.324082 1.88294 -3.81434e-20)
(0.35568 1.40061 -1.6988e-19)
(0.352485 1.35259 -1.64097e-19)
(0.642055 1.40412 -2.43324e-19)
(0.511697 1.47016 -1.31117e-19)
(0.569885 1.443 0)
(0.577362 2.4034 5.24505e-20)
(0.64677 2.39483 9.39592e-20)
(0.408388 2.50004 3.51512e-20)
(0.408319 2.55368 -5.52973e-20)
(0.52137 2.51607 1.03394e-19)
(0.536148 2.44204 0)
(0.481141 2.48869 -1.456e-19)
(0.239874 2.57067 2.43919e-19)
(0.352866 2.55207 -3.12166e-20)
(0.286336 2.62975 -3.65488e-19)
(0.912196 2.37826 1.01361e-19)
(0.81431 2.37418 0)
(1.01056 -0.000108646 3.87564e-21)
(1.01485 -0.00556131 -3.20992e-21)
(1.01742 -0.00359326 -5.72445e-20)
(1.01469 -0.000733595 5.78673e-20)
(1.01203 0.000811923 0)
(0.622393 1.26698 0)
(0.628694 1.14946 0)
(0.723844 1.05805 0)
(0.627645 1.11001 0)
(1.18281 2.62418 2.7085e-20)
(1.07031 2.36479 0)
(0.855326 2.21857 -6.69334e-22)
(0.82345 2.47947 0)
(0.919144 2.56254 1.52093e-20)
(0.957405 2.51757 -9.89855e-21)
(0.840789 0.149032 0)
(0.815165 0.134374 3.29475e-20)
(0.926089 0.123709 1.69814e-19)
(0.859179 0.115345 -6.78239e-20)
(0.848565 0.0628552 -2.04896e-19)
(1.04115 0.217374 -9.82472e-20)
(0.964133 0.280448 -6.25001e-21)
(0.90315 0.265484 1.54677e-19)
(0.980193 0.200989 1.14223e-19)
(0.939074 0.158865 -2.13249e-19)
(0.914851 0.168159 2.75024e-20)
(0.939226 0.225471 -5.36322e-20)
(0.91896 0.191188 0)
(0.976221 0.158361 1.02064e-19)
(1.02402 0.166242 0)
(1.01704 0.19623 0)
(1.07747 0.112833 3.20491e-20)
(1.0535 0.159397 -5.51316e-21)
(1.03829 0.219998 -1.66398e-20)
(1.0763 0.193396 0)
(1.02812 0.03477 8.73274e-20)
(1.04947 0.0478288 1.01945e-19)
(1.04215 0.0339555 -8.5938e-20)
(1.04798 0.0536296 -6.87959e-20)
(1.02418 0.0574067 -1.17004e-19)
(0.97958 0.125016 0)
(0.999331 0.0796574 0)
(0.971677 0.0426655 -8.2114e-20)
(0.930077 0.0571058 3.40086e-20)
(1.03429 0.0834342 9.74873e-20)
(1.05317 0.110651 -9.75816e-20)
(1.06034 0.135223 8.76366e-20)
(1.02052 0.129318 0)
(1.06182 0.0992704 0)
(1.05149 0.0777914 -4.08297e-20)
(1.04612 0.0822883 -7.79367e-20)
(0.57971 1.09472 -3.84449e-20)
(0.625316 1.41854 7.45707e-20)
(1.16186 2.75383 4.48936e-20)
(1.2394 3.08429 -3.42965e-20)
(1.24915 2.72279 2.71288e-19)
(1.28075 2.72171 -1.63709e-19)
(1.16715 2.36349 8.45181e-21)
(1.22707 2.97967 8.48075e-20)
(1.24711 2.94959 -9.22331e-20)
(1.24555 3.24124 -1.41406e-19)
(1.3692 2.98145 1.64821e-19)
(1.31044 2.90468 0)
(0.541687 0.853333 -5.29993e-21)
(0.132034 1.26847 1.63651e-19)
(0.543283 0.496472 1.41969e-19)
(0.357407 0.255145 1.48895e-19)
(0.536522 0.412045 1.61546e-19)
(0.557627 0.477617 -2.54996e-19)
(0.552282 0.49764 2.09739e-19)
(0.502817 0.433727 -8.4211e-20)
(0.435473 0.362452 1.91739e-19)
(0.772782 0.256622 -7.38685e-20)
(0.730828 0.289221 0)
(0.725216 0.22849 4.07611e-21)
(0.718849 0.518953 7.46121e-20)
(0.690642 0.483278 -2.76854e-19)
(0.606904 0.486734 6.13663e-21)
(0.622626 0.471939 0)
(0.663341 0.721831 6.11828e-20)
(0.815137 0.763094 1.72457e-20)
(0.732612 0.839028 -2.37276e-20)
(0.849858 0.791839 -4.78378e-21)
(0.874087 0.82179 6.13506e-21)
(0.881649 0.824158 -6.30208e-21)
(0.825825 0.630441 -8.69566e-20)
(0.893367 0.695978 4.45894e-21)
(0.944191 0.700307 0)
(0.925743 0.66884 -6.07677e-21)
(0.990983 0.303227 2.38274e-20)
(1.0852 0.280212 2.592e-21)
(1.02449 0.254765 3.96356e-20)
(0.974591 0.346932 -5.58608e-20)
(1.01618 0.407693 0)
(1.06077 0.397502 0)
(0.894526 0.34715 2.51245e-21)
(0.837183 0.28666 0)
(0.856484 0.279554 7.92444e-20)
(0.892616 0.27396 -3.74465e-21)
(0.910848 0.417705 2.99838e-19)
(0.871326 0.483031 7.64848e-20)
(0.870488 0.447097 -1.00383e-19)
(0.800376 0.435834 1.07714e-19)
(0.78654 0.439624 7.3886e-20)
(0.751457 0.423046 -7.18998e-20)
(1.02753 -0.000971407 9.1175e-20)
(1.01985 -0.000133432 0)
(1.01845 0.000900962 6.16398e-20)
(1.02182 -0.00222333 -1.38147e-19)
(1.02206 0.00393272 6.71886e-20)
(1.02055 0.0107125 -1.41689e-19)
(1.02151 0.0103198 0)
(1.02131 0.0103801 -2.9695e-20)
(1.01581 0.00763332 7.43407e-20)
(1.01682 0.0101108 -3.78057e-20)
(1.01777 0.00918662 2.7785e-20)
(0.105885 1.1328 0)
(0.212637 1.25947 0)
(0.098554 1.22741 0)
(0.0856743 1.07993 0)
(0.0866801 1.3833 -2.89962e-19)
(0.0865057 1.35534 9.28103e-20)
(0.108171 1.47556 6.35547e-20)
(0.0778517 1.3715 -7.20041e-20)
(0.165594 1.50699 1.94797e-19)
(0.147739 1.47338 -1.46036e-19)
(0.105884 1.3643 -6.82562e-21)
(0.151456 1.37886 1.90357e-19)
(0.176994 1.31407 2.83947e-20)
(0.198555 1.34184 2.51466e-20)
(0.0982332 2.38306 8.09885e-20)
(0.0938022 2.43697 0)
(0.170887 2.09584 -2.19013e-20)
(0.0846948 1.71415 -5.00043e-20)
(0.230649 2.07417 1.28695e-20)
(0.219345 2.45385 0)
(0.274354 2.40944 -3.91678e-20)
(0.308474 2.41172 2.77534e-20)
(0.237732 2.0139 3.41857e-20)
(0.155114 2.18999 3.78494e-21)
(0.151094 2.32076 0)
(0.0892821 1.95579 1.98112e-19)
(-0.0124392 2.46652 2.37788e-19)
(0.0579227 2.27653 0)
(0.0160451 2.46772 -9.55166e-21)
(0.00875894 2.3263 -9.02738e-20)
(-0.0215492 1.30862 -3.68032e-20)
(-0.135152 1.23949 5.84052e-19)
(-0.146108 1.3171 -1.39507e-19)
(-0.0356909 1.43647 -2.26302e-19)
(0.07879 1.51288 0)
(-0.238258 1.20262 0)
(-0.24247 1.21351 -9.83437e-20)
(-0.312427 1.25576 3.2014e-20)
(-0.251638 1.20703 0)
(-0.182411 1.07518 -8.45139e-20)
(-0.155822 1.10338 1.55188e-19)
(1.04103 0.00713404 0)
(1.04469 0.00351964 -8.92069e-21)
(1.04052 0.0155888 -6.56703e-20)
(1.04937 0.0109845 0)
(1.04991 0.00999783 0)
(1.03582 0.00787509 -2.55702e-21)
(1.0318 0.00904552 1.08882e-19)
(1.03131 0.0135379 1.32838e-19)
(1.02654 0.0184924 0)
(1.02513 0.0196005 0)
(1.03668 0.0213826 6.64591e-20)
(1.02979 0.0250168 0)
(1.02815 0.0240571 0)
(-0.413833 2.14643 0)
(-0.382733 1.91986 -1.22337e-20)
(-0.395256 2.07051 -2.56807e-20)
(-0.336399 1.40598 0)
(-0.450113 1.84283 -5.6833e-20)
(-0.403597 1.69266 1.15716e-20)
(-0.376616 1.49062 0)
(0.376445 1.70571 0)
(0.356217 1.27699 2.66741e-19)
(0.304758 1.33969 0)
(0.408089 1.26644 -3.47023e-19)
(0.454894 1.43471 0)
(0.43347 1.38404 1.62092e-19)
(1.02168 2.69969 -1.85723e-21)
(0.944726 2.41497 -1.24445e-19)
(0.877854 2.16973 1.56774e-19)
(0.838268 2.36788 5.50345e-20)
(0.837439 2.5245 0)
(0.900236 2.51354 0)
(0.872658 2.38187 0)
(0.90824 2.33595 -1.927e-19)
(0.685768 2.49521 -3.58521e-21)
(0.799243 2.49185 -4.32633e-21)
(0.808885 2.46029 3.42801e-21)
(0.678759 2.37516 0)
(0.780673 2.37541 0)
(0.739894 2.38261 -9.34998e-20)
(0.760811 2.51285 0)
(0.592378 1.09407 0)
(0.487948 0.937767 4.06299e-21)
(0.557946 0.955939 -6.73166e-22)
(0.520787 1.0643 0)
(0.52737 1.024 -5.33916e-21)
(0.754282 0.861424 6.81986e-21)
(0.759859 0.991313 0)
(0.734543 0.936655 -2.64625e-20)
(0.612246 1.02748 0)
(0.627586 0.933049 0)
(1.16303 2.76763 2.22079e-20)
(1.14029 2.83345 4.97888e-20)
(0.940278 2.35529 -1.13399e-19)
(0.900231 2.33104 1.23231e-20)
(1.12429 2.73621 0)
(1.07452 2.70534 -1.52666e-20)
(1.08019 2.48565 -3.67744e-20)
(0.97849 2.22861 -1.30332e-20)
(0.493907 1.37395 0)
(0.496612 1.07509 3.36839e-20)
(0.539211 1.13265 0)
(0.860648 0.215359 0)
(0.819921 0.172273 0)
(0.777238 0.156384 0)
(0.850242 0.225356 -1.25269e-19)
(0.790613 0.224278 7.8345e-20)
(0.938351 0.0490794 -7.05579e-20)
(0.95221 0.0981993 0)
(0.924846 0.103728 3.15315e-20)
(0.884785 0.0835016 1.29835e-19)
(0.874612 0.0430639 -7.98865e-20)
(1.1784 3.37657 -4.20697e-19)
(1.23017 3.29353 0)
(1.1447 3.39449 -7.96543e-19)
(0.643372 3.55227 7.02409e-19)
(0.857782 3.11391 1.45489e-19)
(0.51131 0.882407 9.53333e-20)
(0.42755 0.875198 0)
(0.345007 0.539055 -3.35609e-20)
(0.458416 0.687096 1.5301e-19)
(0.544113 0.502186 -4.41675e-20)
(0.523138 0.534482 5.15307e-20)
(0.652559 0.531461 1.07143e-19)
(0.681005 0.546836 0)
(0.647057 0.612808 0)
(0.598715 0.548128 0)
(0.937324 0.580071 -2.05729e-20)
(0.875248 0.526976 -7.33319e-20)
(0.898607 0.558877 3.52273e-20)
(0.926289 0.498821 -5.41067e-20)
(1.03374 0.464702 0)
(1.02872 0.544906 -2.30462e-21)
(0.825589 0.389766 -1.62087e-19)
(0.831345 0.373205 -1.82074e-19)
(0.7804 0.385563 1.267e-19)
(0.776626 0.358703 -1.4249e-19)
(0.832708 0.311408 -1.05815e-19)
(0.784161 0.30936 1.30337e-19)
(1.02626 0.00500986 -7.03304e-20)
(1.02607 0.005805 1.4567e-19)
(1.02928 -0.00151865 8.61917e-20)
(1.03292 0.000852001 -1.0537e-19)
(1.03322 0.00600519 0)
(1.03017 0.00694108 -1.71491e-19)
(0.0586004 1.67115 -2.64911e-20)
(0.0782696 1.59914 0)
(0.0643501 1.69307 -2.04366e-19)
(0.0691432 1.67151 1.86637e-19)
(0.0910092 1.50409 -1.16903e-19)
(0.120625 1.50811 0)
(-0.391322 2.14599 0)
(-0.375039 1.69275 4.47688e-20)
(-0.463227 1.67394 -4.03901e-20)
(-0.436515 1.85497 -1.75207e-20)
(-0.402375 2.17655 6.52597e-20)
(-0.395329 2.2007 -3.92999e-20)
(0.489633 1.38262 1.8068e-19)
(0.485875 1.39038 -1.90945e-19)
(0.430244 1.2662 1.77268e-19)
(0.421772 1.29043 -1.0875e-20)
(0.609027 1.27675 0)
(0.52989 1.37117 2.20785e-19)
(0.547147 1.383 -2.14226e-19)
(0.438834 1.25396 -1.71712e-19)
(0.491828 1.2124 0)
(0.539532 1.17638 0)
(0.645905 2.45111 5.38133e-21)
(0.668969 2.48085 2.04745e-19)
(0.707822 2.49681 -1.40176e-19)
(0.613123 2.4851 -4.69568e-20)
(0.559215 2.5769 4.08794e-20)
(0.524094 2.5553 -1.17794e-19)
(0.96105 2.3692 -8.40096e-20)
(1.0059 2.38965 0)
(0.899658 2.14578 -1.18252e-19)
(1.04273 2.68743 0)
(1.04472 2.67374 0)
(0.617435 2.2673 7.67015e-20)
(1.0329 3.16336 1.90843e-19)
(0.900429 3.02428 -1.42005e-19)
(0.295404 0.950527 0)
(0.346853 0.80425 -6.48631e-20)
(0.48457 0.769658 -2.84307e-20)
(0.418522 1.9952 0)
(0.481065 2.78922 -1.02989e-19)
(0.44188 2.5737 0)
(0.675309 0.660023 -1.25604e-19)
(0.75019 0.669408 1.54745e-19)
(0.778275 0.614119 -1.49674e-19)
(0.668811 0.633179 -1.86636e-20)
(0.712469 0.590116 -7.51586e-20)
(1.01774 2.77231 -1.44124e-19)
(1.04534 2.83941 1.35882e-19)
(0.668574 2.16742 4.24166e-20)
(0.594065 1.73401 -3.90903e-20)
(0.713826 1.92673 4.86931e-20)
(0.996754 2.47909 -2.47472e-20)
(0.997687 2.47201 -8.58161e-20)
(0.683263 1.89677 -3.68851e-21)
(0.466622 1.35869 -3.02353e-20)
)
;

boundaryField
{
    wall-4
    {
        type            noSlip;
    }
    velocity-inlet-5
    {
        type            fixedValue;
        value           uniform (1 0 0);
    }
    velocity-inlet-6
    {
        type            fixedValue;
        value           uniform (0 3 0);
    }
    pressure-outlet-7
    {
        type            zeroGradient;
    }
    wall-8
    {
        type            noSlip;
    }
    frontAndBackPlanes
    {
        type            empty;
    }
}


// ************************************************************************* //
