/*--------------------------------*- C++ -*----------------------------------*\
| =========                 |                                                 |
| \\      /  F ield         | OpenFOAM: The Open Source CFD Toolbox           |
|  \\    /   O peration     | Version:  4.0                                   |
|   \\  /    A nd           | Web:      www.OpenFOAM.org                      |
|    \\/     M anipulation  |                                                 |
\*---------------------------------------------------------------------------*/
FoamFile
{
    version     2.0;
    format      ascii;
    class       volScalarField;
    location    "50";
    object      p;
}
// * * * * * * * * * * * * * * * * * * * * * * * * * * * * * * * * * * * * * //

dimensions      [0 2 -2 0 0 0 0];

internalField   nonuniform List<scalar> 
918
(
0.567875
1.20789
-0.00104109
0.567148
-0.0116816
1.17549
-0.489164
0.704756
0.547764
-0.0869683
-0.018169
0.545351
1.03647
0.801831
-1.10642
-0.000834837
0.663532
-0.378733
0.547172
-0.0328463
0.734746
0.554197
0.557219
0.547609
0.616182
0.77957
0.917246
0.0304463
0.00429346
-0.000163429
-0.0105195
-0.0413664
-0.0312147
1.05887
1.10946
1.13204
0.516131
0.355231
-0.344336
-0.42505
-0.418789
-0.535518
0.700401
0.698288
-0.188002
0.707824
0.712276
0.53527
0.547106
0.548054
0.549114
0.54808
0.549498
0.421678
-0.0912065
-0.126129
-0.0672856
-0.0561653
0.0747351
-0.0199335
-0.0217239
-0.0161643
-0.0165306
0.465395
0.540076
0.537206
0.55011
0.559527
1.14663
1.1177
1.14328
1.06025
1.07506
1.0142
0.986133
0.822966
0.844597
0.787527
0.772284
-1.52312
-2.47749
-0.524006
-0.27318
-0.0100621
0.00656253
0.0157035
0.658797
0.658512
0.664708
0.671874
1.10377
-0.344416
-0.493
0.546984
0.545969
0.554059
0.55442
0.551587
0.549666
-0.0239366
-0.0204018
-0.0348951
-0.0319516
-0.031879
0.723334
0.72274
0.549285
0.545873
0.564802
0.584362
0.578418
0.293028
0.617639
0.629157
0.604659
0.76854
0.764502
0.772482
0.891905
0.855231
0.954311
0.977801
0.0165425
0.000953627
-0.00921258
-0.0160406
-0.0158323
0.51202
0.503904
0.531313
0.51956
0.522011
0.272008
0.139102
0.448674
0.477089
-0.262721
-0.334936
-0.406703
-0.440274
-0.535512
0.643456
0.691015
0.688637
-0.193789
-0.131355
-0.260421
-0.0477421
-0.11418
0.525556
0.532574
0.526917
0.542638
0.537344
0.538946
0.551426
0.548492
0.550013
0.481949
0.58483
0.353049
0.313739
-0.235157
-0.138276
-0.230392
-0.043562
-0.0389507
0.0895817
0.115522
0.0629159
0.0545739
-0.0330514
-0.0240364
-0.027594
-0.015003
-0.0156481
0.459829
0.449499
0.479084
0.486386
0.530031
0.531106
0.534444
0.532912
0.936405
0.959097
0.96737
0.940796
-3.48796
-6.534
0.0489812
0.189223
-0.00504187
-0.00927384
0.00396085
-0.00239356
0.0020686
-0.000494247
0.0136405
0.0121362
0.0162842
0.0198809
0.651455
0.651544
1.00966
1.00611
0.971348
0.914017
0.535256
0.53735
0.54282
0.53834
-0.0151364
-0.0171716
-0.0149123
0.714634
0.719981
0.7181
0.255162
0.16771
0.344283
0.373127
0.644568
0.63377
0.643058
0.667439
0.701953
0.984367
1.00209
1.00237
1.01019
1.05528
1.06815
1.03391
0.492019
0.501674
0.497151
0.534448
0.532183
0.533064
0.528874
0.530139
0.527623
-0.0299622
-0.389534
0.539368
0.552018
0.53517
0.538457
0.714154
0.781229
0.672854
0.681593
0.679626
0.021543
-0.040363
0.269029
0.236008
0.399675
0.436003
0.412858
0.907699
0.86905
0.919044
0.892341
0.852335
0.879076
-0.42853
-1.66143
-0.925931
0.547185
0.357079
0.445847
0.034811
0.014137
0.0193503
0.994667
1.08292
0.632823
0.821383
0.869025
0.737529
0.768279
0.829417
0.75248
0.788205
0.822386
0.801098
0.600744
0.55329
0.558339
0.843267
0.896717
0.144949
0.0909635
0.0349072
0.133121
0.186545
0.161712
1.03079
0.950105
1.02213
0.54549
0.546108
0.00333584
0.000522197
0.550334
0.550533
-0.00524986
0.00721224
0.431941
-0.799738
0.118258
0.538513
0.528689
0.545714
-0.0777324
0.382784
-0.01985
0.0730094
0.0145553
0.541935
0.47638
0.437604
0.000233565
-0.00554111
-0.0269309
-0.220444
0.543004
0.541155
0.545228
0.546264
0.546907
-0.01615
-0.0048051
-0.00546354
-0.0263701
-0.0218298
-0.0327581
0.510202
0.528161
-0.156974
0.545355
0.547565
0.547374
0.540276
0.546112
0.544052
0.00490152
-0.0053677
-0.00856335
0.241893
0.369394
0.671133
0.768075
0.644773
0.411602
0.159212
0.577025
0.639141
0.548221
0.697655
0.686004
0.702887
0.190282
0.028456
0.192894
0.132989
0.53671
0.535123
0.527096
0.524026
0.540678
0.538861
0.543265
0.540231
0.54313
0.544569
-0.029095
-0.0556454
-0.0688353
-0.143515
0.338209
0.606375
0.274323
0.315625
0.15876
-0.0131331
-0.0144546
-0.0191241
-0.0249238
0.0314557
-0.00116365
0.0708955
0.0690292
0.0393332
0.00994228
0.0208585
0.00401216
0.00867026
0.535121
0.533568
0.540009
0.548872
0.485953
0.489671
0.454999
0.475545
0.460482
0.401959
0.437063
0.411995
0.00202197
0.0058525
-4.38568e-05
-0.00260407
0.00202862
-0.0055941
-0.0124627
-0.00800165
-0.00537556
-0.0134171
-0.0210416
-0.0178803
-0.174062
-0.284971
1.00657
0.936666
0.133514
0.531968
0.538572
0.535172
0.540219
0.543282
0.544122
0.541876
0.538442
0.528671
0.530349
0.526996
0.527704
-0.082647
-0.232874
-0.0643656
-0.131757
0.146595
0.635273
0.380601
0.30707
0.308201
0.53859
0.952522
0.710848
0.689321
0.721373
-0.343639
0.0254559
-0.284931
0.304725
0.130754
0.674422
0.723043
0.743571
0.691148
0.645347
-0.231284
0.557661
-0.0527305
-0.00552083
0.201507
0.0863284
0.703419
0.670306
0.674443
0.692096
0.710988
0.673842
0.658424
0.654809
0.688339
0.692998
0.504323
0.275025
0.219124
0.185894
0.654901
0.540799
0.592145
0.507995
0.531671
0.534384
0.532939
0.515018
0.522445
0.518012
0.524274
0.527577
0.536663
0.537267
0.532254
0.534516
-0.0279138
-0.033049
-0.00371034
-0.125082
-0.114292
-0.201513
-0.0382073
0.0800996
0.0471629
0.247126
0.328008
0.056252
-0.0377348
-0.0116173
0.0130116
0.182518
0.239695
0.0957101
0.177428
0.174204
0.153411
0.269374
0.265683
-0.000396753
-0.00616123
-0.00810581
-0.00866743
0.0421661
0.110388
0.127187
0.020805
0.0164955
-0.0132604
-0.0117756
-0.00165704
-0.00511204
-0.00115391
0.0335931
-0.0606383
-0.00693541
0.013803
0.0262174
0.0219155
0.0100507
0.527838
0.529956
0.529785
0.537725
0.555705
0.572159
0.52796
0.508527
0.499082
0.501877
0.475264
0.485825
0.481084
0.494188
0.515576
0.524723
0.522518
0.52529
0.508171
0.509857
0.496565
0.499875
0.476493
0.457242
0.44486
-0.0119295
0.0161194
0.0289447
-0.0232562
0.00387364
-0.0090569
0.0113977
0.0339423
0.0168127
0.00804225
-0.00147705
-0.00469616
-0.000380314
-0.0674349
0.0223458
-0.171772
-0.211029
-0.287182
0.908147
1.01603
0.828999
0.59433
0.609254
0.857797
0.940013
0.564469
0.739581
0.767402
0.617277
0.857467
0.537062
0.536609
0.534152
0.533694
0.535021
0.00877685
0.116185
0.110612
0.179571
0.292542
0.414222
0.326434
0.196484
0.325875
0.314812
0.625627
0.64102
0.598098
0.621255
0.622744
0.440337
0.515556
0.568496
0.527666
0.576005
0.594515
0.553948
0.583232
0.536798
0.489247
0.488346
0.438806
0.450884
0.429654
0.413796
0.527366
0.503691
0.514504
0.504765
0.525801
0.548561
0.543409
0.579111
0.590142
0.50952
0.465896
0.472902
0.506213
0.466652
0.481992
0.497055
0.243681
0.171823
0.212761
-0.0792099
0.00327922
-0.0727224
-0.103639
0.0144415
0.314997
-0.422617
-0.485942
-1.0391
0.505358
1.02731
0.653966
0.597652
0.708508
0.688744
0.691466
0.716095
0.716678
0.646185
0.662688
0.666851
0.623968
0.646843
0.673844
0.668619
0.541948
0.39113
0.385261
0.343036
0.218324
0.257924
0.458223
0.373405
0.299299
0.312483
0.475793
0.368357
0.434643
0.461576
0.3818
0.35393
0.549083
0.619567
0.609607
0.582632
0.50218
0.513818
0.542728
0.576394
0.600776
0.636761
0.523729
0.529641
0.530943
0.528506
0.525558
0.528512
0.52874
0.53137
0.532073
0.535212
0.534183
-0.0212661
-0.0101386
-0.0219619
-0.0322214
-0.00170994
-0.00451138
0.0433572
0.0283632
0.010233
0.0163654
-0.00895724
-0.00914992
-0.00682094
0.000846224
0.122672
0.122263
0.103024
0.0713644
0.251554
0.388924
0.453996
0.331817
0.241292
0.266554
0.278538
0.00597232
0.0339182
0.0242713
0.0587187
0.0551659
-0.00904193
-0.0124492
-0.0100644
-0.00402501
0.00664723
-0.0102542
-0.0127772
-0.00573251
-0.0087669
-0.0077347
-0.0121418
0.511132
0.504716
0.505172
0.499754
0.498832
0.511828
0.516156
0.518694
0.524088
0.52603
0.516625
0.521909
0.525504
0.0128405
-0.0153082
-0.0240971
-0.00237052
-0.00987486
-0.00540503
-0.00699492
0.135507
0.0653681
0.0621182
0.0201555
-0.112228
-0.0552435
0.508228
0.511492
0.514169
0.733889
0.586432
0.512655
0.616928
0.715522
0.284264
0.477092
0.313257
0.896536
0.788086
0.93389
0.540851
0.250932
0.413967
0.468989
0.262643
0.340264
0.331033
0.230657
0.25889
0.2875
0.390819
0.282985
0.267968
0.0190518
0.214798
0.327355
0.314359
0.438718
0.505955
0.267712
0.19391
0.160887
0.614263
0.632996
0.651516
0.621961
0.643952
0.588638
0.576148
0.59542
0.604553
0.600184
-0.765836
-0.472764
-1.38925
-0.68185
-0.238385
0.537863
0.505967
0.776458
0.656327
0.70461
0.689932
0.658448
0.625065
0.641621
0.669239
0.369606
0.47535
0.452902
0.455276
0.348089
0.29133
0.587879
0.580409
0.618753
0.641502
0.610113
0.64304
0.521491
0.521247
0.520606
0.517189
0.51574
0.517842
0.0795931
0.0469727
0.092175
0.0712529
0.0461957
0.0306054
0.0210221
0.0104479
-0.00124688
-0.00384939
0.0157603
0.0208201
0.172643
0.108844
0.0372114
0.063885
0.00479162
-0.0654281
-0.0842215
0.0200436
0.114887
0.115468
0.420432
0.65942
0.478873
0.648723
0.514034
0.545518
0.502982
0.496857
0.523063
0.410209
0.484351
0.307191
-0.23055
-0.110435
0.762375
0.82034
0.596299
0.472981
0.181404
0.302154
0.565374
0.488252
0.529018
0.601347
0.590319
0.0291396
0.0530262
0.400915
0.60249
0.256888
0.189302
0.206747
0.371828
0.325459
)
;

boundaryField
{
    wall-4
    {
        type            zeroGradient;
    }
    velocity-inlet-5
    {
        type            zeroGradient;
    }
    velocity-inlet-6
    {
        type            zeroGradient;
    }
    pressure-outlet-7
    {
        type            fixedValue;
        value           uniform 0;
    }
    wall-8
    {
        type            zeroGradient;
    }
    frontAndBackPlanes
    {
        type            empty;
    }
}


// ************************************************************************* //
