/*--------------------------------*- C++ -*----------------------------------*\
| =========                 |                                                 |
| \\      /  F ield         | OpenFOAM: The Open Source CFD Toolbox           |
|  \\    /   O peration     | Version:  4.0                                   |
|   \\  /    A nd           | Web:      www.OpenFOAM.org                      |
|    \\/     M anipulation  |                                                 |
\*---------------------------------------------------------------------------*/
FoamFile
{
    version     2.0;
    format      ascii;
    class       surfaceScalarField;
    location    "50";
    object      phi;
}
// * * * * * * * * * * * * * * * * * * * * * * * * * * * * * * * * * * * * * //

dimensions      [0 3 -1 0 0 0 0];

internalField   nonuniform List<scalar> 
1300
(
3.75095
5.62643
-3.24353
3.75095
-7.76764
5.62643
-4.3672
4.3672
-0.653963
0.653963
1.87646
1.8745
-2.9206
2.9206
-2.40643
2.40643
-2.54033
2.54033
-5.24638
5.24638
-5.0678
5.0678
4.65569
-4.65569
-6.28504
6.28504
-1.01602
1.01602
-3.81157
3.81157
3.1687
-3.1687
-2.24459
2.24459
-0.117474
0.117474
-0.553127
4.30408
3.19783
3.19783
-2.00786
2.00786
-4.86682
4.86682
6.21747
-6.21747
5.26001
-5.26001
-2.01648
-2.40581
1.83018
-11.5845
-5.93746
-5.93746
-8.44023
8.44023
-2.8138
2.81263
2.94533
-2.94533
-1.86618
1.86618
-4.30154
-0.0656589
-4.30154
4.35464
0.0125566
4.35464
-0.728113
0.0741499
-0.728113
3.97114
-3.97114
0.546292
0.107671
0.546292
3.06525
-3.06525
-1.87718
3.75363
1.87378
-1.87179
6.17587
-1.87916
3.75366
-5.9779
5.9779
-3.1266
0.206002
-3.1266
2.73794
0.182654
2.73794
-6.80256
6.80256
-2.43843
0.0320058
-2.43843
2.36681
0.0396212
2.36681
2.8734
-2.8734
-2.64716
0.106836
-2.64716
2.42591
0.114414
2.42591
0.35367
5.27276
-5.9801
8.79274
-5.27276
0.0263773
5.2082
0.0381806
5.2082
-5.10546
0.0376545
-5.10546
5.01356
0.0542377
5.01356
4.72972
-0.0740279
4.72972
-4.78178
0.126088
-4.78178
-3.40078
-4.03458
-6.43044
0.145403
-6.43044
-1.07715
0.0611242
-1.07715
0.944855
0.0711684
0.944855
-3.65928
3.65928
-4.11076
0.299186
-4.11076
3.12254
0.0461642
3.12254
1.86902
1.88193
5.61997
-5.61997
2.45127
-2.25715
0.0125539
-2.25715
-2.26442
-2.99559
2.26442
-0.0198321
-0.346228
0.228754
-0.346228
3.16014
0.0376844
3.16014
2.27001
0.155905
-2.27001
0.262153
3.25372
-3.25372
1.33952
0.668336
1.33952
-5.56818
5.56818
4.95465
0.0589153
-4.95465
0.0878266
6.15578
0.0616891
6.15578
-6.19985
-0.0176244
-6.19985
2.57727
-4.98308
-2.56307
6.11022
0.174811
-6.11022
0.172768
2.91624
0.029089
2.91624
-2.91858
2.91858
-2.98444
0.0391178
-2.98444
-2.24686
0.380681
-2.24686
1.58306
0.283114
1.58306
-4.20647
-0.0950658
-4.20647
-4.25984
0.14908
4.25984
0.0948009
1.19649
-1.19649
-0.825882
0.0977693
-0.825882
-4.08623
-0.120247
4.08623
-0.115086
-3.84064
-0.130499
-3.84064
-3.02426
0.0398166
3.02426
0.0409886
3.11325
0.046894
-3.11325
0.048
-1.87089
3.75282
-1.88006
3.75384
-5.60454
-0.373362
-5.60454
6.28663
-0.308736
6.28663
3.48617
0.325408
-3.48617
0.359567
2.60052
0.137423
2.60052
-6.76511
-0.0374524
-6.76511
6.78808
0.0144792
6.78808
2.50318
0.0973377
-2.50318
0.064749
2.33276
0.0340444
2.33276
2.89456
-0.0211635
2.89456
-2.87058
-0.00281986
-2.87058
2.79556
-2.79556
2.72595
0.0696123
-2.72595
0.0787827
-11.1327
11.115
-0.0349864
-11.0977
5.17322
5.17322
4.14379
0.585924
4.14379
-4.99781
0.216032
-4.99781
2.71141
-5.27448
3.03729
-6.43807
4.6698
-16.2543
4.33141
-8.36598
6.65836
-6.65836
6.5532
0.105161
-6.5532
0.122765
-1.17302
0.0958711
-1.17302
-3.0606
-0.598685
-3.0606
4.30508
-0.645794
4.30508
-3.0275
3.0275
-3.07655
0.0490522
3.07655
0.0459887
2.30267
0.0300933
-2.30267
0.0455218
0.446849
0.0994433
-0.446849
0.100621
3.45026
-0.196545
3.45026
-3.06211
-0.191613
-3.06211
-1.26008
0.0870623
1.26008
0.0794393
-5.81589
0.247703
-5.81589
-11.191
0.0932845
-11.1528
-6.10656
-6.10656
2.33366
11.1264
-2.89077
0.0201922
2.89077
0.0254637
2.97406
0.0534353
-2.97406
0.0554793
-2.85961
0.0640463
2.85961
0.0589791
-2.62792
0.381067
-2.62792
-1.17837
1.17837
-1.34805
0.169678
1.34805
0.235008
1.43311
-0.23662
1.43311
0.8869
0.0579546
-0.8869
0.0610179
-3.73623
-0.104411
-3.73623
6.51875
-0.232116
6.51875
-2.95252
-0.109589
2.95252
-0.0579535
-0.0335005
11.1485
-5.13971
0.0342592
5.13971
-11.2102
11.2445
-3.25272
0.624793
3.25272
0.891078
5.29003
0.278154
-5.29003
0.292219
6.73974
0.048346
-6.73974
0.081371
-2.57843
-0.482169
-2.57843
-5.04065
-0.563888
5.04065
-0.735571
-11.4729
-0.20333
11.6763
-11.4187
6.01922
0.136566
-6.01922
11.381
-1.11674
-0.0797489
1.11674
0.0616302
1.73558
-0.302471
1.73558
3.63544
-0.185173
-3.63544
-0.100792
-6.67214
-0.0929703
6.67214
-0.153388
-2.13586
-0.44257
2.13586
-0.400276
-4.26693
4.30461
1.90895
-2.44996
-2.53312
-5.44555
1.85151
1.90132
4.30278
-10.1826
-6.07164
-10.0099
7.25576
-6.96354
-9.25801
9.18399
7.78035
-7.91084
-5.7869
5.83289
6.48296
-6.44197
1.87878
1.87486
7.90201
-7.69601
-15.6363
15.2629
7.44995
-7.41795
15.7726
-15.8101
-17.8552
17.9035
-5.70505
5.81189
-6.7342
6.73138
-6.9572
6.89925
-2.88561
-3.55246
13.1399
-12.9945
8.49645
-8.48389
-8.59047
8.88965
3.38201
0.922604
3.4289
-1.88228
3.76106
-1.87137
3.78032
2.66601
-5.55162
2.60847
-5.14159
4.26653
4.22992
-4.24669
-1.19886
-5.92101
5.9501
-5.81924
5.87822
9.05301
-9.11867
-1.88521
3.76007
-1.86863
3.76995
-3.4265
-2.3604
3.38033
0.922442
8.10048
5.03946
-8.2753
-1.73456
-8.00517
7.82
-8.19866
8.00705
-0.431616
5.81695
-5.38533
4.43521
-1.56067
7.37762
5.69509
5.91112
5.86302
-5.58487
1.10052
-6.48585
-6.39802
-2.39832
2.49609
2.30935
-2.20168
6.06313
1.71722
5.94804
-5.72366
-2.18719
-5.82807
3.82164
2.01125
3.87069
4.07729
2.40567
4.11711
3.03052
-3.03567
0.0051439
-3.05639
6.08691
0.724399
-5.41679
-4.49434
4.93393
2.96809
5.11658
-5.48696
-2.20905
-5.12739
-9.54174
-6.09452
-10.1056
10.1028
5.16014
9.79403
-11.9744
11.8211
4.76054
2.68942
4.80016
-4.89493
-2.52302
-4.83018
11.6117
-2.59451
-9.01723
-10.3238
-7.53144
10.3093
5.46333
10.9686
6.93492
11.05
4.42012
7.19162
-9.88346
2.35202
-3.86439
-1.84066
-3.78561
3.67788
2.13401
3.7923
-4.21512
-2.51908
-4.19493
-4.29051
-2.66669
4.31167
2.41971
-4.40882
-3.78984
4.51841
2.38083
4.02124
-10.0929
4.34475
-7.89721
-9.20974
-3.7848
-9.08698
3.46698
2.61521
-6.08219
-2.08464
8.42509
-4.19517
7.22623
-5.15971
-3.32418
-5.11419
-6.82002
-1.77045
-6.67094
-8.85641
8.37424
-9.1789
8.53311
12.5791
-5.68368
-6.89547
-3.96856
-2.47341
3.92056
-0.491658
-3.7106
3.71574
0.0504624
3.83078
4.75339
4.26173
-3.88695
-1.93229
-3.83147
3.82943
2.04879
3.89347
6.78251
2.2705
6.79507
-6.559
-2.55967
-6.65407
9.02955
-8.64887
2.88352
-2.79646
5.37125
2.6358
-5.1747
-2.83047
6.2042
-3.213
-2.9912
-12.2127
10.5701
1.64261
-4.83511
-0.399902
-0.282428
-5.48344
-3.77458
5.35735
0.553767
11.1239
7.34931
-5.51261
5.76031
6.16366
6.22258
-0.175444
5.76569
-5.14089
5.2872
-2.50381
-2.78339
5.41863
-5.53887
-1.23544
-5.40927
4.17383
0.409171
1.59456
-1.3658
-1.86262
-0.5357
-1.8016
1.38355
0.925802
1.483
0.92643
1.56966
-2.93707
0.557873
2.3792
-2.01064
-1.64381
-3.74274
-1.13967
4.88242
5.74305
2.07695
-5.64226
-0.185807
2.60931
-2.53815
-0.745021
-2.99772
2.21658
-2.9616
-3.6833
-1.97765
5.66095
-3.37091
-0.460566
3.31747
0.553219
-3.82601
-2.09499
3.7869
0.330213
-3.12645
6.18848
-3.06203
-5.05874
2.52846
3.55845
4.53971
-4.78893
2.44662
2.34231
-1.23048
4.21684
0.899744
4.35426
-6.79392
4.58487
5.75625
3.13341
-6.08166
0.954264
-5.83965
8.48001
-7.29422
-1.18578
4.13062
4.34939
7.12018
5.45897
-5.72565
12.8458
-1.1827
-6.11152
7.02235
-3.88895
4.78018
-8.66913
-10.2392
4.12763
-9.18506
10.9388
-1.75372
-3.62723
-8.34721
12.8123
-1.2147
-11.5976
8.57933
-4.19125
-4.2788
8.47005
-6.78576
6.80182
-1.96945
-4.83236
-10.1117
-5.69842
10.2046
1.61643
-9.84229
12.1943
-2.65067
4.08166
0.718496
4.1157
3.25263
-5.41307
2.16044
3.53313
-5.50258
2.07717
-7.49024
-6.71691
12.07
-5.35306
-10.5017
-9.50404
-0.997666
2.53188
9.66243
-9.46681
7.43586
2.03094
3.30583
0.587642
-3.37544
-0.410169
0.23345
4.53283
-4.76628
4.02575
4.18165
3.32043
1.21239
3.84298
2.10711
-3.86845
-0.326478
-4.15751
1.49081
-1.7378
-3.68774
5.17856
-4.06883
0.381088
-2.74242
-3.50158
6.244
-4.58308
3.03585
3.15264
5.08464
-4.9121
1.41051
-2.39672
-2.51538
2.65832
-4.39611
1.98355
3.19501
4.36438
0.574543
5.86455
6.20541
-8.47977
0.582561
11.2449
-9.51031
2.4559
8.5941
-9.89176
0.387722
-8.69926
1.01716
-5.21233
-5.06504
5.10817
-6.87861
-3.56097
6.15563
0.639444
-6.25043
-0.420512
-6.03488
-2.82153
-6.47745
-3.0448
-6.1341
-8.77045
-1.64145
-7.129
6.73278
-6.68087
-3.42476
7.41644
1.11666
-7.39861
7.31886
-7.48447
7.182
0.0952208
3.62052
4.35695
1.88353
-2.39004
4.27357
-5.07838
7.34888
-8.62996
3.55158
4.11144
-6.67111
-4.51852
5.03007
3.99948
5.31318
8.90348
-10.3739
1.47045
-10.7005
12.0191
-1.31859
-16.4588
5.75829
-7.55531
2.52696
0.356563
2.62283
0.571969
2.50256
-3.07453
-2.22449
-2.14505
-2.40533
-3.4512
5.85653
1.11346
-3.49916
2.3857
-3.56721
4.68067
-0.155419
-3.34374
5.29538
-2.79282
5.65194
-3.72263
1.92931
3.41138
5.74907
-2.33769
4.38308
-1.74727
1.89859
-4.23629
-1.55261
-2.96024
5.09424
-3.28377
3.66485
-0.327969
3.99282
-4.08526
0.87226
-0.764822
3.41683
3.67898
4.29451
-3.08212
2.93297
-4.68025
-1.30331
-4.10571
-0.910699
-0.271395
-3.7472
4.01859
6.02039
-6.29179
-5.21512
9.52847
-4.31335
7.71724
-5.37951
-2.33772
-4.23983
-4.40904
3.85877
1.90692
9.62415
0.237984
-5.6175
-4.90291
-4.01183
3.14178
2.14542
-1.82633
3.46894
2.10876
-0.514199
0.487036
0.99596
1.82003
-1.33299
0.269223
1.55081
-1.09658
1.85468
0.754635
-1.91263
0.11103
-1.29921
3.51579
1.07999
-2.00579
0.672799
1.0017
-3.50551
5.01061
-2.63942
-2.37119
6.01232
1.11424
-3.75366
4.29502
-3.88585
2.34843
-3.48811
-1.40523
-5.29108
-3.57387
-2.54837
4.93408
-3.30815
5.3851
1.25077
-5.19929
6.45007
-3.6609
1.68325
-3.09489
3.84952
-1.01977
-2.07512
2.86987
2.79109
-3.00573
0.00801074
-0.135865
2.38322
-2.51908
-0.578384
-2.58902
-4.57333
4.90354
-2.10592
4.55254
2.16766
-1.91593
6.46847
1.80989
-3.72582
-3.24885
-3.70942
-1.38351
3.1562
-0.593577
-4.2366
-5.42594
4.13926
0.214997
-6.92184
7.7366
-0.814769
-3.95375
-0.631119
4.76174
-5.98661
0.484033
-3.90944
3.82717
4.72691
4.94191
-11.3921
-0.205453
-6.232
1.15306
-7.38506
5.50245
-3.59346
7.72109
-10.369
6.94427
-9.25237
6.53531
-0.849753
6.2421
-4.08166
2.77513
-8.47355
-6.85713
5.42221
-2.7328
6.14071
-3.08658
9.22729
-5.73725
5.20218
4.0251
-0.977229
-4.13696
-5.21102
4.23379
-0.00883494
4.10687
4.9753
-2.86819
4.64883
2.26637
-4.66308
-2.12974
-6.49944
1.83635
-3.3468
-1.91794
3.75429
3.1667
3.75434
1.23891
-3.34417
7.14544
-8.1431
-1.79238
-3.27265
5.19269
-0.958898
3.34382
-6.61647
-1.86851
4.86315
-0.83342
-4.02973
0.820529
-4.3815
1.67767
-6.05916
5.20095
-5.62146
2.19527
-9.75058
-5.20333
-5.1417
-2.23795
-5.24652
-7.59401
5.35606
-1.83572
5.48314
-8.54016
7.70674
-3.47892
8.83498
-5.44079
-1.03666
5.84107
1.34093
10.1759
0.211417
-4.72994
-1.92688
3.92154
-1.99466
1.2149
-3.53578
0.385759
2.47501
3.5373
-6.64884
-0.0222641
-4.7522
-3.92944
7.92893
5.59903
11.6194
1.24549
9.10269
-1.17376
10.3482
4.13942
4.37443
-3.03048
4.50093
0.988117
4.53969
-0.903609
2.83292
1.71922
1.78035
0.757801
2.31214
1.36684
3.1844
0.109877
-2.03517
4.6262
-8.63803
-0.991294
-8.05211
1.13188
5.817
-4.68512
3.02529
-0.879872
1.03063
0.0172298
-1.46475
1.44752
-2.76616
-1.97895
-0.428139
-1.66183
2.33463
1.85396
-1.90649
-0.859674
0.367064
-3.94093
3.12104
-3.11303
-0.321946
6.12812
-2.80168
0.282601
-1.11843
-2.30642
-2.84212
2.73109
6.17547
0.293001
3.11344
5.19654
3.10155
0.233354
3.89607
-5.64979
-3.59418
-5.85524
-0.352796
4.40894
1.73485
7.92758
5.75995
4.80105
-1.81542
-9.95852
6.54208
-2.04116
5.2235
-1.19377
-4.8654
5.00315
2.34573
-5.6426
0.0211369
-4.84426
-6.88542
-0.551156
8.25789
-9.62476
8.5881
5.76657
1.36243
-4.40904
-0.73267
4.23936
0.135073
10.4832
-1.179
-6.70077
7.87977
-4.638
3.64671
0.741885
2.72705
2.1894
1.30953
-5.39124
-10.0764
-1.9954
-1.51011
-4.36659
0.515824
-2.36978
6.26389
-2.61719
3.92617
5.26258
6.29321
-2.13377
-4.15801
6.44712
-2.52095
3.77225
)
;

boundaryField
{
    wall-4
    {
        type            calculated;
        value           uniform 0;
    }
    velocity-inlet-5
    {
        type            calculated;
        value           uniform -3.75095;
    }
    velocity-inlet-6
    {
        type            calculated;
        value           uniform -5.62643;
    }
    pressure-outlet-7
    {
        type            calculated;
        value           nonuniform List<scalar> 8(3.24353 7.76764 4.42229 9.75428 7.43536 5.14034 5.7487 9.00121);
    }
    wall-8
    {
        type            calculated;
        value           uniform 0;
    }
    frontAndBackPlanes
    {
        type            empty;
        value           nonuniform 0();
    }
}


// ************************************************************************* //
