/*--------------------------------*- C++ -*----------------------------------*\
| =========                 |                                                 |
| \\      /  F ield         | OpenFOAM: The Open Source CFD Toolbox           |
|  \\    /   O peration     | Version:  4.0                                   |
|   \\  /    A nd           | Web:      www.OpenFOAM.org                      |
|    \\/     M anipulation  |                                                 |
\*---------------------------------------------------------------------------*/
FoamFile
{
    version     2.0;
    format      ascii;
    class       volVectorField;
    location    "50";
    object      U;
}
// * * * * * * * * * * * * * * * * * * * * * * * * * * * * * * * * * * * * * //

dimensions      [0 1 -1 0 0 0 0];

internalField   nonuniform List<vector> 
918
(
(0.98509 -0.000551703 0)
(0.00479553 2.96625 0)
(0.0138462 0.865363 0)
(0.979828 0.00240751 0)
(-0.0112483 2.0642 1.58803e-20)
(-0.00705044 2.94891 -1.09164e-18)
(0.807163 1.16255 1.77076e-19)
(0.207139 0.108349 -6.28201e-21)
(0.999905 -0.000299722 0)
(0.0500599 0.808719 0)
(0.0121709 0.626518 0)
(0.733055 -0.0135019 0)
(0.0115033 2.93012 0)
(0.00349332 2.79475 0)
(-0.0210421 3.1508 3.3876e-19)
(-0.0253372 1.90544 -1.06744e-21)
(0.286398 0.0367558 4.1543e-19)
(0.20519 1.17525 1.28248e-19)
(0.961951 0.00387581 0)
(0.00353111 0.550625 0)
(0.0242356 0.13339 -2.97212e-19)
(1.00217 -0.00519864 0)
(1.00077 -0.0101506 0)
(0.975979 -0.00653316 0)
(0.578702 -0.0295308 0)
(0.0180191 2.63926 0)
(-0.0147756 2.91007 3.83638e-19)
(0.0146726 0.92966 0)
(-0.00659126 1.17926 0)
(0.0155287 0.914341 0)
(-0.00820963 2.60933 0)
(0.00152799 2.12078 -1.23661e-20)
(-0.0110735 1.8893 0)
(-0.0204491 2.98752 -3.92886e-23)
(-0.0169801 3.0054 8.67149e-19)
(0.00201629 3.00015 0)
(0.870924 -0.00884604 0)
(0.438801 0.973309 8.02613e-20)
(0.784961 1.17693 -1.92179e-19)
(0.936849 1.01935 2.14611e-19)
(0.658 1.2702 -4.09726e-20)
(0.658747 1.25313 2.3794e-19)
(0.244924 0.173678 6.12517e-21)
(0.219648 0.0835901 0)
(1.1446 0.577197 0)
(0.21641 0.164055 2.79312e-20)
(0.179345 0.106877 -2.9001e-20)
(0.919613 -0.00724797 0)
(1.00028 0.000158232 0)
(0.999916 0.000343415 0)
(1.00351 -0.00767085 0)
(1.00096 -0.000942442 0)
(1.00019 2.5445e-05 0)
(0.0610184 1.80725 -3.26933e-19)
(0.0234562 1.01151 0)
(0.0785771 0.877606 0)
(0.010989 0.966645 0)
(0.0305122 0.741652 0)
(0.00775174 1.99665 0)
(-0.000198167 0.858926 0)
(0.0112928 0.63571 0)
(0.00267725 0.848357 0)
(0.00969495 0.61329 0)
(0.839934 -0.014702 0)
(0.844959 0.0291477 0)
(0.76585 -0.00481476 0)
(0.811782 0.0375467 0)
(0.704148 -0.0133396 0)
(0.0153227 3.00067 3.96626e-19)
(0.0117053 3.0084 0)
(0.00651094 3.00254 0)
(0.01415 2.99722 4.45558e-24)
(0.00834636 2.95852 -5.99501e-19)
(0.0151973 2.98183 0)
(0.0112247 2.90366 0)
(0.0255706 2.93012 8.77801e-25)
(0.00507275 2.82481 0)
(0.0315933 2.91603 0)
(-0.00483923 2.74607 0)
(0.302148 3.54161 0)
(-0.146137 3.61823 0)
(0.133814 3.24301 -3.12689e-19)
(-0.0101632 2.98338 0)
(-0.0180125 1.9893 0)
(-0.00636774 2.16399 1.05261e-21)
(-0.0188653 1.9102 -5.84845e-21)
(0.387953 0.139382 -1.43968e-19)
(0.303808 0.0291273 -1.39453e-19)
(0.359576 0.148837 -4.32165e-19)
(0.261828 0.045211 -2.83672e-19)
(0.192383 0.961814 0)
(0.212876 1.30919 -1.43965e-19)
(0.37112 1.25655 2.43916e-19)
(0.98734 0.00823823 0)
(0.941261 0.00544083 0)
(1.00031 0.00043113 0)
(1.00326 0.00949661 0)
(1.00287 0.00785232 -1.12558e-18)
(0.991771 0.00989034 8.59461e-19)
(0.00122321 0.825165 0)
(0.00595689 0.564505 0)
(-0.0326097 0.983743 0)
(-0.0168181 0.845084 0)
(0.0102922 0.544266 0)
(0.0515095 0.141093 9.20387e-20)
(0.115687 0.11776 0)
(0.993366 -0.00824626 0)
(0.954493 -0.00615643 0)
(0.758262 0.0445237 0)
(0.695649 0.0572741 0)
(0.664716 -0.02461 0)
(0.966314 -0.00420532 0)
(0.606499 0.0829041 0)
(0.443792 -0.0014216 6.23595e-19)
(-0.0364883 2.8649 2.82192e-19)
(0.0418198 2.90982 0)
(0.0541836 2.88513 0)
(-0.00336402 2.69916 0)
(-0.0138955 2.98486 3.62458e-19)
(-0.0181604 2.89485 0)
(-0.0159889 2.988 -1.12736e-18)
(-0.0131509 2.92533 3.87328e-19)
(-0.00655651 1.34465 0)
(0.0119784 1.37273 0)
(-0.00603744 2.13434 1.06373e-22)
(-0.0037132 2.09686 0)
(-0.026542 1.89733 0)
(0.938272 -0.00756044 0)
(0.857398 -0.00828442 0)
(0.862657 0.00556612 0)
(0.949301 -0.00782708 0)
(0.883792 -0.00737642 0)
(0.547439 1.16735 -1.02323e-19)
(0.596737 1.20572 0)
(0.406783 0.927202 1.48617e-20)
(0.346329 0.780309 0)
(0.90081 1.05713 -5.81413e-20)
(1.01452 0.870412 1.18476e-19)
(0.353345 1.34705 0)
(0.512392 1.33066 0)
(0.522722 1.27353 0)
(0.125143 0.213699 -1.26985e-19)
(0.276739 0.168648 0)
(0.244726 0.0767571 8.00855e-20)
(0.990984 0.923828 0)
(1.06938 0.783617 0)
(1.09107 0.725264 -9.34616e-20)
(1.12319 0.630892 0)
(1.17155 0.41586 2.40461e-20)
(0.957714 -0.00849028 0)
(0.962395 -0.0102382 0)
(0.902046 -0.00737529 0)
(0.984357 -0.00917366 0)
(0.974852 -0.00932759 0)
(0.937462 -0.00597732 0)
(1.00018 0.00214906 0)
(1.00086 0.00143243 0)
(0.999867 0.000911094 0)
(0.0284281 2.06845 1.79768e-19)
(0.0977972 1.75892 0)
(0.0148338 2.17686 2.80782e-19)
(0.0413318 1.86242 -2.35675e-19)
(0.0939028 1.19629 -1.04753e-19)
(0.0421013 1.08051 0)
(0.11834 1.02225 0)
(0.00811447 0.922328 0)
(0.0110473 0.69385 0)
(-0.0014061 2.23091 -4.58953e-22)
(0.015808 1.99986 0)
(-0.00112065 2.23286 -2.04877e-20)
(0.0100804 2.00405 3.59968e-20)
(0.00471728 0.895806 0)
(0.00433889 0.874679 0)
(0.00952153 0.657975 0)
(0.000180666 0.841141 0)
(0.00883651 0.597089 0)
(0.936548 0.00998965 0)
(0.846564 -0.0152686 0)
(0.926461 -0.000536007 0)
(0.840432 -0.0122356 0)
(0.810851 -0.000253663 0)
(0.900066 0.020586 0)
(0.876081 0.0248884 0)
(0.787675 -0.00222427 0)
(0.00407584 3.06444 -3.49801e-21)
(0.0167768 3.05746 0)
(0.0152658 2.96896 0)
(0.00896396 2.87628 0)
(0.959863 3.97652 0)
(1.3041 3.2403 4.48738e-19)
(0.0685678 3.07511 0)
(-0.0236476 2.90692 0)
(0.00278221 1.39085 0)
(-0.0186478 1.69386 0)
(-0.0057072 1.52588 0)
(-0.0264119 2.56384 -1.38621e-21)
(-0.00679342 2.24809 0)
(-0.0153793 2.40019 0)
(0.000152314 1.93316 3.52467e-22)
(-0.00240935 2.23289 4.54447e-21)
(-0.00449567 2.19646 5.8934e-21)
(-0.0100969 1.91889 0)
(0.42962 0.125279 2.18876e-19)
(0.347587 0.0197225 -2.14968e-19)
(0.271861 1.57969 0)
(0.250845 0.747728 -1.26966e-19)
(0.177812 1.67121 -4.17903e-19)
(0.204751 1.21481 4.18852e-19)
(0.901586 0.00581878 0)
(0.967291 0.0107811 0)
(0.974374 0.0106904 0)
(0.92312 0.00589487 0)
(-0.00100384 0.838605 0)
(0.00910868 0.830686 0)
(0.00583827 0.580869 0)
(0.186675 0.152167 2.5818e-19)
(0.157054 0.137654 -3.05098e-19)
(0.150824 0.110435 0)
(1.09185 0.085558 1.16464e-20)
(1.07105 0.0386539 0)
(1.0065 0.0398944 0)
(0.902703 -0.00456112 0)
(0.474493 0.10853 0)
(0.52609 0.0901072 -9.98068e-19)
(0.391334 0.0118412 3.73871e-19)
(0.0090693 2.98137 3.01873e-19)
(-0.032881 2.86673 1.90402e-20)
(0.00183563 3.04969 -7.40301e-21)
(0.0208838 3.0431 2.73099e-19)
(-0.0152998 2.99631 1.27171e-20)
(-0.0127733 2.94948 -5.12664e-23)
(-0.0175705 3.01147 -2.33819e-19)
(0.014268 3.02286 1.68371e-19)
(0.00678033 3.03684 -2.73036e-19)
(0.933123 -0.00193395 0)
(0.939105 -0.00304436 0)
(0.844362 -0.00783856 0)
(0.956327 0.0116396 0)
(0.942591 0.013004 0)
(0.881111 0.00537635 0)
(0.917275 0.0164816 0)
(0.92598 0.014883 0)
(0.838144 0.00242112 0)
(0.7603 1.43163 2.48094e-20)
(0.802636 1.52269 0)
(0.213806 0.351856 3.11576e-20)
(0.258188 0.728768 2.47023e-19)
(0.295535 0.775916 -1.4841e-19)
(0.303456 0.552636 2.88496e-19)
(0.342059 0.828933 6.61164e-19)
(0.1413 0.244088 1.50681e-19)
(0.329345 0.159346 3.00448e-19)
(0.305053 0.166413 7.84106e-20)
(0.253898 0.0564508 1.49383e-19)
(1.1626 0.471876 1.66508e-20)
(1.17525 0.269072 1.47327e-20)
(0.00847478 2.22634 1.08566e-19)
(0.039111 1.93023 0)
(0.967207 0.0307699 0)
(0.940224 0.0129135 0)
(0.867947 -0.0173464 0)
(0.011456 3.07432 0)
(0.0206763 2.944 4.96191e-19)
(0.017135 2.95629 0)
(0.00667824 2.85044 -4.94559e-19)
(0.00579831 3.09162 1.17284e-19)
(0.00564531 3.08164 0)
(0.887374 1.82548 -6.8635e-20)
(1.26913 2.37423 1.17924e-19)
(0.867515 1.92888 -4.75584e-19)
(0.0201453 2.98195 -2.61436e-19)
(0.0355453 3.00149 0)
(-0.0325299 2.88041 0)
(-0.00415241 2.21213 -6.07473e-21)
(-0.00248405 2.23612 -1.07509e-20)
(0.00335244 1.96812 -3.59276e-21)
(0.279345 1.39583 4.14508e-19)
(0.205759 0.545967 -2.82199e-19)
(0.0533722 1.99656 3.1322e-19)
(0.153229 1.88965 -3.77071e-19)
(0.149648 1.48978 4.08506e-20)
(0.00446427 3.11859 -6.92031e-19)
(0.0103531 3.11913 7.83822e-19)
(-0.00975264 2.98047 3.33293e-19)
(-0.00488896 2.97765 -3.14958e-19)
(-0.0216966 2.88113 -3.39634e-19)
(0.00750639 3.09915 -8.73036e-19)
(0.000726515 3.10478 8.87393e-19)
(0.298133 0.739887 0)
(0.265485 0.738196 -5.15089e-19)
(0.112577 0.252071 2.29466e-19)
(0.358181 0.950852 4.49283e-19)
(0.187519 0.284172 -6.93117e-19)
(1.1731 0.176963 2.97588e-20)
(1.17651 0.318515 0)
(1.15905 0.127335 -6.31836e-21)
(0.000723405 2.24275 -7.24973e-22)
(0.00257226 2.23699 0)
(0.0214898 1.96778 0)
(0.351891 1.30122 -1.4813e-19)
(0.380928 1.14474 -3.23325e-19)
(0.191232 0.377209 5.74822e-19)
(1.00554 -0.0111701 0)
(1.00751 -0.00743061 2.09003e-19)
(-0.00325336 1.32276 0)
(-0.0210383 1.30825 0)
(1.00198 0.00345464 8.00545e-22)
(1.00381 0.0100536 4.22914e-19)
(-0.0129363 2.54675 1.8245e-21)
(-0.0204393 2.58943 0)
(0.0324302 3.17297 1.83896e-19)
(0.38558 3.47606 0)
(1.17801 0.646838 -2.70387e-20)
(1.01319 0.013623 -7.62363e-22)
(1.02127 -0.0106734 0)
(1.00176 0.000120751 2.7294e-23)
(0.103706 1.35461 0)
(0.151524 2.57217 0)
(0.0231315 1.29973 0)
(0.000685231 2.6228 2.04251e-20)
(-0.0207602 2.57968 8.95196e-21)
(1.00088 0.0296657 1.0304e-21)
(1.06261 0.00379362 0)
(1.09432 0.0228534 0)
(-0.0189455 1.73674 0)
(-0.0170463 2.58503 0)
(0.00658241 1.29896 0)
(0.30676 1.46768 -6.86554e-20)
(1.01125 -0.00987448 0)
(1.0094 -0.0153616 0)
(1.00241 0.000646762 2.65455e-19)
(1.00538 -0.00477764 -3.15135e-19)
(1.0012 -0.00104623 0)
(-0.00356413 1.46046 0)
(0.000103389 1.36461 0)
(0.00558563 1.41391 0)
(0.0041552 1.28717 0)
(-0.00356515 1.26723 0)
(0.00563349 1.252 0)
(1.03441 -0.00689934 0)
(1.02054 0.016097 -3.51203e-22)
(0.821533 1.252 9.56252e-20)
(1.00222 0.000404602 -2.64757e-19)
(1.00402 0.0053518 3.14913e-19)
(1.00118 0.00213038 0)
(1.01341 0.0105883 2.6266e-19)
(1.00854 0.008691 -3.18211e-19)
(1.00929 0.0156847 0)
(-0.0224955 2.61494 0)
(-0.0228847 2.59603 -3.34616e-21)
(-0.020665 2.60981 2.40222e-21)
(1.23183 0.25329 2.47602e-19)
(1.15758 0.0794233 0)
(0.0415108 3.07391 -4.01219e-19)
(0.0642643 2.85394 -2.86241e-20)
(0.139528 3.19684 6.10196e-19)
(0.137288 3.22695 -7.71712e-20)
(0.131973 3.2333 0)
(0.019313 3.1361 1.06533e-19)
(0.073671 3.16125 3.91259e-19)
(0.0673749 3.18484 -2.02634e-19)
(0.0231475 3.12856 0)
(0.622452 0.276038 0)
(0.543513 0.316801 0)
(1.13218 0.678893 6.31702e-20)
(1.1549 0.802154 -5.99687e-20)
(1.19621 0.565606 0)
(1.23735 0.504402 0)
(1.0163 0.0136951 -4.95973e-19)
(1.01512 0.0148294 6.21631e-19)
(1.02521 -0.0100863 0)
(1.02321 -0.0123498 0)
(1.00638 0.00261426 0)
(1.01013 0.00363447 0)
(1.0046 0.00188104 0)
(1.00982 0.00609216 0)
(1.00803 0.00629818 0)
(1.00443 0.00445372 0)
(0.0919345 1.35091 0)
(0.0883955 1.32004 0)
(0.122058 1.38641 0)
(0.144865 1.39963 0)
(0.146376 2.59613 0)
(0.186922 2.66119 -1.86167e-19)
(0.0988523 2.65279 0)
(0.0888835 2.65288 8.85258e-20)
(0.0401698 2.68115 -6.91879e-20)
(0.0154797 1.30719 0)
(0.019244 1.23985 0)
(0.021159 1.31971 0)
(0.0307772 1.26216 0)
(0.00081796 1.97845 -8.28694e-21)
(-0.0197602 2.60845 6.77935e-22)
(-0.00928086 2.66366 1.66106e-20)
(-0.01772 2.68439 0)
(-0.0228162 2.61416 -1.97708e-20)
(-0.0233765 2.60887 -5.56427e-21)
(0.0115019 1.97795 7.69692e-21)
(-0.00679806 2.39397 -8.7745e-22)
(-0.0137224 2.41683 -1.97452e-20)
(1.01109 0.0373976 4.99322e-19)
(1.00622 0.0170579 -6.20804e-19)
(1.00199 0.0443079 -5.03347e-19)
(0.979876 0.023505 6.39673e-19)
(1.06369 0.00804765 0)
(1.04886 -0.00882409 0)
(1.09326 0.0318426 0)
(1.07341 0.0121557 0)
(1.07143 0.00115925 0)
(1.13465 0.0841998 0)
(1.10905 0.0433012 0)
(1.11488 0.0281132 0)
(-0.0165324 2.43734 -1.98382e-22)
(-0.00281618 2.01047 0)
(-0.00990246 2.21867 0)
(-0.0189999 2.60656 -1.23029e-21)
(-0.015525 2.61593 -9.215e-23)
(0.00732868 1.55906 -4.23862e-21)
(-0.0011093 1.49327 4.26838e-21)
(-0.00531426 1.38054 0)
(-0.00714176 1.38841 0)
(-0.00694405 1.38404 0)
(0.00549612 1.30041 0)
(0.0151029 1.2287 0)
(0.379235 1.48975 1.12667e-19)
(0.434263 1.48632 5.82198e-20)
(0.59518 2.44069 -1.01357e-19)
(0.402862 2.53828 2.93428e-19)
(0.346207 2.06481 3.05259e-20)
(1.02114 -0.00809928 0)
(1.01547 -0.00986493 0)
(1.01498 -0.0160774 0)
(1.00734 -0.00121579 0)
(1.00494 -0.00104199 0)
(1.00772 -0.00462186 0)
(1.00919 -0.00372429 0)
(1.01409 -0.00445523 0)
(1.02124 0.0163715 4.87267e-19)
(1.01807 0.0161216 -6.18726e-19)
(1.02151 0.0183075 -4.87962e-19)
(1.01934 0.0172119 6.11767e-19)
(0.782568 1.30476 0)
(0.721475 1.35527 9.43556e-20)
(0.888537 1.21773 3.5479e-20)
(0.954172 1.14978 -4.72086e-20)
(1.15794 2.59967 1.21974e-19)
(0.790273 0.116307 2.43925e-19)
(1.1539 0.111286 0)
(1.21016 0.194943 -1.98334e-19)
(1.19912 0.146011 -8.42084e-21)
(1.0028 0.152228 0)
(0.154484 2.96118 2.07985e-19)
(0.10936 2.86823 -5.36853e-19)
(0.0243103 2.38237 3.32051e-19)
(0.0962621 -0.0681872 -1.38898e-19)
(0.334601 3.41963 -8.82389e-20)
(0.1965 3.31915 0)
(0.227207 3.35192 1.14834e-19)
(0.253581 3.04097 -6.93516e-19)
(0.357336 3.20113 0)
(0.00713374 3.12039 2.04163e-20)
(0.0173104 3.12896 -2.43263e-19)
(0.0158379 3.12478 3.56769e-19)
(0.0345798 3.13957 0)
(0.032745 3.14985 0)
(1.19065 2.63785 0)
(0.55149 0.821132 -2.13594e-19)
(1.07956 0.97338 3.10609e-21)
(0.98533 1.07562 0)
(0.838141 0.953766 -4.77719e-20)
(1.07294 0.886081 1.0517e-20)
(0.334603 0.366513 -3.7179e-19)
(0.671258 0.314636 -7.35338e-21)
(0.616876 0.219007 1.70994e-19)
(0.561519 0.36474 1.25726e-20)
(0.46932 0.309888 -5.07036e-19)
(0.639082 0.327455 0)
(0.708387 0.414236 2.88744e-19)
(0.713645 0.413809 0)
(0.596136 0.356582 0)
(0.551475 0.258982 0)
(0.810671 0.610217 1.71849e-19)
(1.22355 0.284552 -2.13344e-19)
(1.23195 0.416857 0)
(1.25161 0.351857 0)
(0.725166 0.19248 2.54061e-19)
(0.859543 0.545283 -1.57888e-19)
(0.758995 0.515796 2.80244e-19)
(0.957062 0.431865 -3.06563e-19)
(1.01984 0.0149233 3.31673e-19)
(1.01803 0.0144676 -3.33875e-19)
(1.01589 0.0161586 0)
(1.03603 -0.00617746 0)
(1.02968 -0.00866361 -3.12619e-19)
(1.02757 -0.012606 3.10133e-19)
(1.02494 0.0101319 0)
(1.0237 0.0135886 0)
(1.01119 0.00402673 0)
(1.01428 0.00896393 0)
(1.01472 0.00416569 0)
(1.01385 0.0030309 0)
(0.0609197 1.33354 0)
(0.0644278 1.28792 0)
(0.140153 1.35715 -5.564e-21)
(0.277158 1.46561 3.57491e-20)
(0.169227 1.43494 7.7131e-20)
(0.212267 1.44675 -1.25264e-19)
(0.163252 1.38038 0)
(0.130697 1.59523 -3.0364e-20)
(0.109802 1.56475 0)
(0.348344 2.01094 -4.41186e-20)
(0.347772 2.35871 2.51042e-19)
(0.192085 1.44969 2.65504e-20)
(0.248937 1.37458 5.5129e-21)
(0.197784 1.36313 -4.43347e-21)
(0.260264 1.32381 -4.91842e-20)
(0.229577 1.5788 0)
(0.261542 1.60861 5.22361e-20)
(0.0280198 2.26474 -1.53613e-20)
(0.0434296 2.67031 0)
(0.0617524 2.40309 6.5694e-20)
(0.0575515 2.4258 0)
(0.0696493 2.66456 -9.85317e-20)
(0.0516752 2.69847 0)
(0.027347 1.41227 1.9759e-21)
(0.0320072 1.46276 0)
(0.0288697 1.38207 0)
(0.0237293 1.38524 -2.2244e-21)
(-9.76432e-05 2.65141 -8.47071e-21)
(0.0296408 2.69709 7.84484e-20)
(0.0109247 2.72057 5.98922e-22)
(0.00367207 1.8277 7.12884e-21)
(-0.00526467 1.67782 2.88804e-21)
(0.0159312 1.29187 0)
(0.018592 1.21481 0)
(0.0477504 1.57281 2.55647e-22)
(0.0272847 1.44672 -1.37487e-21)
(0.0364477 1.51157 1.84964e-21)
(0.0377533 1.59706 0)
(-0.0227725 2.27182 3.53637e-20)
(-0.0298683 2.55323 -1.62087e-20)
(-0.00660651 2.44543 -3.13285e-22)
(-0.00289491 1.84236 -8.60754e-21)
(-0.0238393 2.49641 -3.07673e-21)
(-0.018558 2.44159 1.27205e-20)
(1.01938 0.0212726 -3.29239e-19)
(1.01548 0.0269996 3.31624e-19)
(1.01438 0.0163373 0)
(1.01191 0.0717886 4.61628e-19)
(0.989266 0.0614069 -5.19697e-19)
(0.945349 0.0417511 5.83476e-19)
(1.01358 0.106803 -6.1569e-20)
(1.04225 -0.00594683 0)
(1.05066 -0.00160364 2.99427e-19)
(1.03874 -0.0104135 -2.98757e-19)
(1.07087 0.0421062 -1.76674e-20)
(1.06421 0.0223642 1.52378e-19)
(1.06374 0.0537161 0)
(1.05339 0.0482452 -5.46841e-20)
(1.03259 0.0414426 0)
(1.02604 0.0379334 0)
(1.02755 0.0137785 0)
(1.02396 0.016259 0)
(1.03937 0.0325633 1.12433e-19)
(1.03858 0.0260649 -2.48235e-19)
(1.05009 0.0323644 -1.19669e-19)
(1.04841 0.0325535 -1.31672e-19)
(1.06927 0.062258 2.56867e-19)
(1.09307 0.0517199 0)
(1.10393 0.0931681 0)
(-0.0183695 2.2685 9.3249e-21)
(-0.0114062 2.01081 -6.54858e-22)
(-0.0117719 2.01245 0)
(-0.0188591 2.44732 -9.69625e-21)
(-0.0128403 2.40459 8.31676e-22)
(-0.0273204 2.47821 8.66291e-22)
(-0.0190063 2.6225 4.30451e-21)
(-0.0206559 2.56302 -7.00744e-22)
(-0.0169211 2.51283 2.01317e-21)
(-0.0128022 2.61811 -2.06046e-22)
(-0.0194569 2.61945 1.06033e-21)
(0.000200322 1.47711 -4.25636e-22)
(0.0171288 1.6083 -2.70237e-21)
(0.356808 1.43531 -4.60951e-20)
(0.358039 1.37591 1.93369e-20)
(0.658978 1.4097 -9.12537e-20)
(0.525748 1.47765 -5.64662e-20)
(0.593617 1.44226 0)
(0.583508 2.41897 9.50683e-20)
(0.656 2.41771 1.45175e-19)
(0.403715 2.5154 3.74884e-20)
(0.405969 2.54726 -2.54054e-19)
(0.519808 2.49409 2.51764e-19)
(0.54395 2.45721 0)
(0.480063 2.51313 -2.37654e-19)
(0.236943 2.58809 4.91965e-19)
(0.347062 2.56817 -3.46149e-20)
(0.280532 2.65164 -6.72381e-19)
(0.934775 2.37659 3.24584e-19)
(0.828307 2.3864 0)
(1.01093 0.000265558 1.06951e-20)
(1.01526 -0.00544268 -8.85981e-21)
(1.01757 -0.00343065 -1.59607e-19)
(1.01486 -0.000853024 1.61359e-19)
(1.01222 0.00107635 0)
(0.645355 1.27822 0)
(0.659593 1.17603 0)
(0.768147 1.08079 0)
(0.658885 1.1323 0)
(1.18618 2.60942 2.72057e-20)
(1.07352 2.3598 0)
(0.851609 2.16822 1.65661e-21)
(0.82221 2.43995 0)
(0.92312 2.53258 -1.72828e-19)
(0.960731 2.49247 1.12252e-19)
(0.81146 0.17828 0)
(0.768295 0.15107 6.58664e-20)
(0.917149 0.14747 3.87678e-19)
(0.829746 0.149488 -1.44141e-19)
(0.794706 0.0851397 -4.47244e-19)
(1.07531 0.234527 -3.81246e-19)
(0.998225 0.301012 -6.58428e-21)
(0.928654 0.290067 3.54229e-19)
(1.00751 0.226663 2.9755e-19)
(0.952078 0.192024 -5.13524e-19)
(0.919041 0.194768 6.39684e-20)
(0.955025 0.251947 -1.36254e-19)
(0.933788 0.218718 0)
(0.992888 0.186492 2.53078e-19)
(1.04778 0.188979 0)
(1.04353 0.219437 0)
(1.1017 0.119298 1.20297e-19)
(1.07648 0.177575 -6.12176e-21)
(1.0725 0.234241 -6.44979e-20)
(1.10253 0.203554 0)
(1.02187 0.0460505 2.55562e-19)
(1.04221 0.0587925 3.15721e-19)
(1.03419 0.0444579 -2.50947e-19)
(1.04273 0.0657384 -2.12141e-19)
(1.01707 0.0733533 -3.25583e-19)
(0.988799 0.157943 0)
(1.00143 0.105458 0)
(0.966972 0.0699928 -2.07437e-19)
(0.910239 0.090839 8.09951e-20)
(1.03887 0.1024 2.93894e-19)
(1.06956 0.119128 -3.45261e-19)
(1.07731 0.15116 3.05132e-19)
(1.02785 0.146708 0)
(1.07309 0.10898 0)
(1.05561 0.0873133 -1.41138e-19)
(1.04477 0.0955482 -2.4019e-19)
(0.576092 1.07234 6.03917e-20)
(0.622043 1.38323 -2.46298e-20)
(1.15992 2.73357 -9.82098e-20)
(1.23691 3.07086 -1.14132e-21)
(1.24978 2.70658 -5.81278e-20)
(1.27984 2.70408 -3.31001e-20)
(1.16627 2.34826 8.1622e-21)
(1.22558 2.96445 -5.5955e-20)
(1.24758 2.93314 1.22921e-19)
(1.24236 3.22517 -7.95772e-20)
(1.36414 2.96036 9.13384e-20)
(1.3008 2.885 0)
(0.559904 0.82581 -2.05017e-20)
(0.104551 1.23207 2.50103e-19)
(0.564791 0.407854 2.44337e-19)
(0.374313 0.145549 2.62595e-19)
(0.501246 0.35807 2.87565e-19)
(0.550502 0.446103 -4.74973e-19)
(0.544929 0.459969 3.89343e-19)
(0.481772 0.365225 -1.46078e-19)
(0.38288 0.292006 3.2833e-19)
(0.731205 0.262015 -1.45644e-19)
(0.691281 0.28219 0)
(0.658548 0.203364 3.17683e-21)
(0.74015 0.509152 1.51545e-19)
(0.715246 0.4691 -5.54499e-19)
(0.610871 0.456959 4.83042e-21)
(0.621527 0.443962 0)
(0.676334 0.72094 1.66201e-19)
(0.854231 0.778177 1.60574e-19)
(0.76991 0.861641 -1.87215e-19)
(0.892871 0.807462 -6.42508e-20)
(0.918005 0.840636 -1.64517e-20)
(0.924385 0.841999 1.69e-20)
(0.860686 0.64289 -2.85813e-19)
(0.935989 0.709153 5.98736e-20)
(0.990432 0.717499 0)
(0.972845 0.687794 -8.43664e-20)
(1.02768 0.325237 8.84592e-20)
(1.12496 0.294745 1.25186e-19)
(1.06278 0.271131 1.52814e-19)
(1.01781 0.368121 -1.79442e-19)
(1.06178 0.429017 0)
(1.10682 0.412377 0)
(0.922536 0.361422 2.36922e-21)
(0.844503 0.299239 0)
(0.886047 0.297857 1.66081e-19)
(0.917085 0.297392 -3.77867e-21)
(0.947879 0.432885 8.5452e-19)
(0.907899 0.492944 2.22833e-19)
(0.909834 0.457385 -2.37281e-19)
(0.828662 0.443044 2.54571e-19)
(0.813838 0.44069 1.53356e-19)
(0.779388 0.420743 -1.49325e-19)
(1.02728 -0.000233727 2.64165e-19)
(1.01991 1.95463e-05 0)
(1.01852 0.000879015 1.74528e-19)
(1.02137 -0.00201694 -3.93464e-19)
(1.02219 0.00451942 1.91547e-19)
(1.02041 0.0113637 -4.03048e-19)
(1.02142 0.0106568 0)
(1.02095 0.0106501 -8.32937e-20)
(1.01587 0.00785814 2.08625e-19)
(1.01679 0.0103989 -1.05544e-19)
(1.01747 0.00968262 7.77102e-20)
(0.0266033 1.31317 0)
(0.0334939 1.35758 0)
(0.0411877 1.31228 0)
(0.0448598 1.27024 0)
(0.065026 1.37813 -3.80733e-21)
(0.0742998 1.34646 4.61667e-21)
(0.115909 1.51007 -1.04779e-20)
(0.0883245 1.35966 3.47385e-21)
(0.0322109 1.45146 -7.59098e-21)
(0.0358913 1.44396 5.89255e-21)
(0.05933 1.36145 -1.68059e-21)
(0.053648 1.36255 4.9769e-21)
(0.0462891 1.34045 6.27337e-22)
(0.0384142 1.36332 -4.21834e-22)
(0.106243 2.37266 -7.08009e-20)
(0.0905493 2.42196 0)
(0.166214 2.06398 4.64794e-20)
(0.111625 1.7059 1.76063e-20)
(0.235554 2.05275 -3.75778e-20)
(0.204013 2.43871 0)
(0.268314 2.39211 -2.46973e-19)
(0.305705 2.39025 1.74537e-19)
(0.221339 2.0061 -1.09535e-19)
(0.149749 2.16674 7.4469e-20)
(0.151169 2.28113 0)
(0.0125899 1.8787 -9.96192e-21)
(-0.00154736 2.39654 -2.92334e-20)
(0.00362652 2.15026 0)
(0.00925867 2.45873 -5.47598e-21)
(0.0246967 2.30406 9.70639e-21)
(0.0167515 1.39391 -7.89668e-22)
(0.0162365 1.37934 1.39182e-20)
(0.0164735 1.38432 -5.67697e-21)
(0.0214675 1.38534 -2.74052e-21)
(0.0264263 1.41646 0)
(0.0122391 1.36521 0)
(0.00639999 1.28384 -5.18263e-21)
(0.0140301 1.35721 1.32016e-21)
(0.0151728 1.35748 0)
(0.0103294 1.27634 -3.30553e-21)
(0.0171634 1.2066 7.48072e-21)
(1.03985 0.0108776 0)
(1.04575 0.00745278 -2.78924e-20)
(1.03851 0.0214637 -2.00086e-19)
(1.04788 0.0201375 0)
(1.05148 0.0199884 0)
(1.03647 0.0113949 -2.8295e-21)
(1.03133 0.0109371 3.22429e-19)
(1.03155 0.0164994 3.94478e-19)
(1.02548 0.0204909 0)
(1.02289 0.0208558 0)
(1.03482 0.0257408 2.00468e-19)
(1.02605 0.0265794 0)
(1.02432 0.0263216 0)
(-0.019059 2.01572 0)
(0.0170343 1.6462 -3.24212e-21)
(0.00341594 1.75533 -1.48897e-20)
(0.00905083 1.36913 0)
(-0.00748851 1.54169 -1.89943e-21)
(0.00319739 1.44732 8.78942e-22)
(0.00472362 1.37966 0)
(0.381762 1.67109 0)
(0.365409 1.29837 -3.8047e-20)
(0.309073 1.34365 0)
(0.419677 1.29795 1.28492e-20)
(0.468482 1.45977 0)
(0.448872 1.40692 5.98189e-21)
(1.0319 2.68013 -6.88853e-21)
(0.959857 2.41013 -3.96709e-19)
(0.91055 2.19487 4.52175e-19)
(0.841592 2.37842 1.11918e-19)
(0.841414 2.49501 0)
(0.913666 2.4878 0)
(0.917314 2.37173 0)
(0.896312 2.35972 -4.1006e-19)
(0.685028 2.45655 -1.69352e-19)
(0.795963 2.45208 -4.11693e-20)
(0.808566 2.42167 3.25748e-20)
(0.687109 2.3935 0)
(0.793212 2.39211 0)
(0.74831 2.40267 -1.56543e-19)
(0.764974 2.49034 0)
(0.628186 1.10372 0)
(0.485155 0.90829 -2.0837e-19)
(0.574251 0.937528 -1.34497e-20)
(0.528235 1.04458 0)
(0.530128 0.991576 3.15269e-19)
(0.792085 0.885564 -5.41016e-20)
(0.799606 1.00985 0)
(0.772173 0.961692 7.99547e-20)
(0.654727 1.03928 0)
(0.661293 0.943093 0)
(1.16701 2.7498 -1.03279e-19)
(1.14367 2.81507 -4.78028e-20)
(0.937951 2.32613 5.55966e-20)
(0.898819 2.30635 -3.89872e-20)
(1.13038 2.72131 0)
(1.08316 2.68952 4.91165e-20)
(1.08933 2.4754 -1.37403e-19)
(0.981371 2.23343 -1.40618e-20)
(0.49629 1.34688 0)
(0.508682 1.06926 -5.29368e-20)
(0.574259 1.15417 0)
(0.859496 0.238866 0)
(0.779431 0.194773 0)
(0.711311 0.157676 0)
(0.855199 0.238679 -2.61116e-19)
(0.74935 0.230858 1.52826e-19)
(0.926673 0.0771029 -1.68327e-19)
(0.942044 0.124876 0)
(0.921133 0.137798 7.20395e-20)
(0.858099 0.113087 2.90108e-19)
(0.826027 0.0703186 -1.82044e-19)
(1.17151 3.3595 -3.07695e-19)
(1.22322 3.28295 0)
(1.13682 3.37754 -6.04923e-19)
(0.636209 3.5361 5.2876e-19)
(0.847196 3.10439 2.14704e-20)
(0.515778 0.827184 2.51287e-19)
(0.417274 0.823413 0)
(0.312003 0.454557 -6.15842e-20)
(0.462379 0.662214 3.497e-19)
(0.557438 0.419968 -8.38473e-20)
(0.522813 0.487782 9.59288e-20)
(0.661762 0.515354 2.07589e-19)
(0.699201 0.539683 0)
(0.656864 0.586215 0)
(0.613368 0.528945 0)
(0.988606 0.603325 4.10048e-20)
(0.911465 0.54152 -2.15146e-19)
(0.934016 0.571346 1.6654e-19)
(0.9659 0.514814 -1.67387e-19)
(1.08122 0.487736 0)
(1.07244 0.570042 -4.19326e-20)
(0.85201 0.399111 -3.48135e-19)
(0.855795 0.387706 -4.22865e-19)
(0.794664 0.381614 2.70037e-19)
(0.799348 0.359635 -2.7538e-19)
(0.846666 0.321335 -2.16261e-19)
(0.79423 0.320882 2.65978e-19)
(1.0267 0.00586136 -2.04682e-19)
(1.02631 0.0062598 4.23951e-19)
(1.0295 -0.000321204 2.55965e-19)
(1.03347 0.000915763 -3.0948e-19)
(1.03309 0.00787492 0)
(1.02996 0.00879534 -5.06939e-19)
(0.0598884 1.63617 9.84265e-21)
(0.0436598 1.57223 0)
(0.0853468 1.68244 7.08859e-20)
(0.0936479 1.66486 -6.30985e-20)
(0.0888137 1.52216 1.95689e-20)
(0.086671 1.51341 0)
(0.0162631 1.67373 0)
(-0.00403684 1.47711 -6.53141e-22)
(0.0018905 1.42328 5.86684e-22)
(-0.00248436 1.53849 3.02677e-21)
(0.0077931 1.87548 -1.37162e-21)
(-0.00848364 1.92776 2.49355e-21)
(0.499017 1.36816 -1.1242e-19)
(0.493001 1.37645 1.21271e-19)
(0.448252 1.29545 -1.60832e-20)
(0.436456 1.29062 3.26215e-21)
(0.633144 1.30176 0)
(0.547621 1.39085 3.93985e-20)
(0.565273 1.39942 -3.82398e-20)
(0.46035 1.28344 1.56464e-20)
(0.518058 1.23859 0)
(0.564034 1.19988 0)
(0.646995 2.41492 2.54159e-19)
(0.669827 2.45946 5.23033e-19)
(0.708767 2.47292 -3.58816e-19)
(0.60647 2.45313 -8.51578e-20)
(0.562629 2.53921 1.21146e-19)
(0.522789 2.52122 -3.13173e-19)
(0.975592 2.37684 -2.51655e-19)
(1.01112 2.38665 0)
(0.920286 2.17454 -2.91814e-19)
(1.05378 2.67008 0)
(1.05696 2.65694 0)
(0.599357 2.24502 -7.2216e-20)
(1.028 3.15331 4.62119e-20)
(0.895174 3.01226 1.14181e-20)
(0.279676 0.880491 0)
(0.312636 0.714601 -1.32047e-19)
(0.456717 0.683733 -1.32653e-19)
(0.39379 1.97219 0)
(0.47713 2.78327 -1.52007e-20)
(0.431344 2.56678 0)
(0.694927 0.660395 -3.50204e-19)
(0.780761 0.682089 4.67576e-19)
(0.808973 0.617336 -4.58316e-19)
(0.682731 0.625669 -4.51228e-20)
(0.732671 0.584865 -1.8434e-19)
(1.0136 2.75777 -3.49021e-20)
(1.04785 2.83008 -4.91722e-20)
(0.65126 2.1234 2.98274e-19)
(0.579849 1.70248 -2.0655e-19)
(0.710277 1.89754 -1.74702e-19)
(0.996752 2.46248 -4.59943e-20)
(0.997874 2.44933 1.07132e-19)
(0.662982 1.86242 9.75271e-21)
(0.45853 1.32456 6.25956e-20)
)
;

boundaryField
{
    wall-4
    {
        type            noSlip;
    }
    velocity-inlet-5
    {
        type            fixedValue;
        value           uniform (1 0 0);
    }
    velocity-inlet-6
    {
        type            fixedValue;
        value           uniform (0 3 0);
    }
    pressure-outlet-7
    {
        type            zeroGradient;
    }
    wall-8
    {
        type            noSlip;
    }
    frontAndBackPlanes
    {
        type            empty;
    }
}


// ************************************************************************* //
