/*--------------------------------*- C++ -*----------------------------------*\
| =========                 |                                                 |
| \\      /  F ield         | OpenFOAM: The Open Source CFD Toolbox           |
|  \\    /   O peration     | Version:  4.0                                   |
|   \\  /    A nd           | Web:      www.OpenFOAM.org                      |
|    \\/     M anipulation  |                                                 |
\*---------------------------------------------------------------------------*/
FoamFile
{
    version     2.0;
    format      ascii;
    class       volScalarField;
    location    "26";
    object      p;
}
// * * * * * * * * * * * * * * * * * * * * * * * * * * * * * * * * * * * * * //

dimensions      [0 2 -2 0 0 0 0];

internalField   nonuniform List<scalar> 
918
(
0.24164
0.911067
0.0214571
0.240938
-0.0111279
0.878117
-0.818547
0.417271
0.221718
-0.398893
-0.4193
0.213177
0.738832
0.505441
-1.44376
-0.192217
0.371126
-0.696662
0.22071
-0.0645919
0.467185
0.228362
0.231405
0.222002
0.283088
0.488108
0.619665
0.00385232
0.0136794
0.00239598
-0.0109704
-0.0579732
-0.0742826
0.761748
0.812845
0.835522
0.190587
0.0180332
-0.673823
-0.747479
-0.735566
-0.864614
0.409076
0.413561
-0.481143
0.417674
0.429783
0.209124
0.22106
0.221997
0.223117
0.222029
0.223439
0.115108
-0.404113
-0.43923
-0.381255
-0.372989
-0.203736
-0.420078
-0.401398
-0.416851
-0.391053
0.144029
0.210299
0.207524
0.218016
0.225685
0.850615
0.822519
0.848651
0.762416
0.77886
0.716784
0.689254
0.52549
0.547165
0.49114
0.477649
-1.88608
-2.85744
-0.843228
-0.586694
-0.00360983
-0.222073
-0.249929
0.360571
0.363473
0.370344
0.38338
0.766194
-0.69094
-0.83289
0.220766
0.219558
0.228093
0.228777
0.224785
0.22388
-0.100916
-0.151855
-0.0221136
-0.0462083
-0.044225
0.452555
0.448083
0.222561
0.219599
0.233319
0.255825
0.245511
-0.0154387
0.290552
0.309122
0.305017
0.473566
0.470604
0.478377
0.593342
0.556584
0.656693
0.680053
0.00561967
0.00352749
-0.178005
-0.0982128
-0.127073
0.186671
0.179693
0.20475
0.193865
0.196152
-0.0662671
-0.202616
0.10367
0.126838
-0.583155
-0.64841
-0.754897
-0.76897
-0.877348
0.261836
0.400186
0.401681
-0.498434
-0.417435
-0.558947
-0.343759
-0.409474
0.199547
0.206459
0.2015
0.216807
0.211352
0.213288
0.225349
0.222432
0.223972
0.179974
0.301147
0.0509647
0.0267342
-0.553785
-0.454448
-0.542613
-0.358793
-0.364904
-0.205151
-0.167771
-0.211802
-0.203937
-0.36737
-0.384537
-0.370761
-0.371026
-0.329481
0.136996
0.126572
0.155205
0.162231
0.202088
0.203185
0.205342
0.204147
0.640038
0.662527
0.66989
0.643509
-3.86798
-6.69058
-0.254395
-0.113382
-0.00376154
0.00149886
-4.04835e-05
0.00524053
0.00299366
-0.00757038
-0.251292
-0.26124
-0.262106
-0.268902
0.345216
0.346328
0.682626
0.675293
0.668359
0.622075
0.208856
0.211024
0.216567
0.212418
-0.293051
-0.201847
-0.239839
0.42692
0.439118
0.437685
-0.0510692
-0.135977
0.0306343
0.0577355
0.33136
0.314406
0.330515
0.368504
0.404921
0.687557
0.705795
0.704036
0.712354
0.756337
0.772696
0.738103
0.16758
0.176888
0.171993
0.208037
0.205635
0.206644
0.201733
0.203366
0.200994
-0.356269
-0.74361
0.185489
0.205473
0.173265
0.188816
0.338333
0.41112
0.380974
0.391528
0.393005
-0.276863
-0.338056
-0.0230763
-0.0634497
0.0825363
0.115433
0.0974998
0.611261
0.571336
0.621434
0.594915
0.556076
0.582662
-0.695565
-2.22208
-1.32633
0.246304
0.0551292
0.145178
-0.214743
-0.229873
-0.222184
0.662187
0.74275
0.357665
0.51809
0.530759
0.441526
0.472706
0.530354
0.454778
0.490513
0.525696
0.505121
0.221817
0.196314
0.190792
0.481828
0.537702
-0.16352
-0.215959
-0.264479
-0.166778
-0.112537
-0.132692
0.710569
0.598478
0.673944
0.219322
0.220006
-0.00951349
-0.0236047
0.22411
0.224178
-0.0102201
-0.0454001
0.126511
-1.1535
-0.175357
0.212493
0.202973
0.219672
-0.384448
0.0737658
-0.425293
-0.208419
-0.280206
0.210845
0.153445
0.117403
0.00201017
-0.184891
-0.122299
-0.508847
0.216974
0.215311
0.219167
0.22021
0.220843
-0.0125199
-0.0225403
-0.00970746
-0.10844
-0.0538794
-0.0570615
0.184908
0.201229
-0.470068
0.219356
0.221448
0.221307
0.214355
0.220145
0.218273
-0.122399
-0.076145
-0.159172
-0.0649398
0.0515297
0.377228
0.476816
0.339416
0.111237
-0.130501
0.275363
0.342053
0.242666
0.403893
0.390424
0.407082
-0.114215
-0.261048
-0.106643
-0.160909
0.210452
0.209074
0.201213
0.198405
0.214583
0.212618
0.217288
0.214129
0.217127
0.218522
-0.344307
-0.36929
-0.381721
-0.444556
0.0328449
0.290651
-0.0351
0.00544902
-0.141497
-0.462395
-0.419589
-0.411887
-0.388398
-0.366128
-0.280841
-0.244554
-0.219421
-0.324157
-0.321384
-0.432727
-0.356653
-0.379053
0.204922
0.203883
0.210006
0.216951
0.162556
0.166147
0.133957
0.152646
0.137898
0.0839889
0.117093
0.092879
-0.00453837
0.00165848
0.00457044
-0.196025
-0.301299
-0.0930195
-0.0404302
-0.0513978
-0.0453892
-0.0571067
-0.198022
-0.220743
-0.469759
-0.586703
0.667417
0.613908
-0.192712
0.206202
0.212603
0.209423
0.214104
0.217225
0.218116
0.215868
0.212479
0.20194
0.203802
0.199881
0.200295
-0.412125
-0.546586
-0.370793
-0.437317
-0.175879
0.321867
0.0643854
0.00490411
0.000294212
0.21593
0.617735
0.418377
0.425847
0.450967
-0.653717
-0.25385
-0.585491
0.0353537
-0.142833
0.376707
0.426628
0.447951
0.395554
0.346564
-0.429585
0.22833
-0.356079
-0.312944
-0.123615
-0.225875
0.418061
0.374352
0.380043
0.394527
0.413846
0.378434
0.357213
0.354553
0.390467
0.395455
0.188816
-0.0328391
-0.07766
-0.114766
0.355545
0.229796
0.28596
0.202301
0.205221
0.208123
0.206625
0.189647
0.1969
0.192726
0.197871
0.20099
0.210373
0.210781
0.206035
0.208492
-0.347683
-0.356031
-0.321526
-0.432089
-0.424781
-0.470588
-0.36403
-0.234863
-0.272961
-0.0749941
0.0356412
-0.259396
-0.371688
-0.340317
-0.312743
-0.130447
-0.106347
-0.208852
-0.118479
-0.119186
-0.137996
-0.0313835
-0.0284779
-0.426458
-0.364599
-0.354181
-0.412074
-0.260081
-0.18466
-0.181374
-0.482028
-0.517947
-0.421136
-0.374397
-0.306786
-0.323055
-0.336992
-0.275798
-0.175524
-0.186341
-0.257426
-0.458011
-0.347288
-0.380446
0.200149
0.201624
0.201733
0.212047
0.224153
0.239165
0.204876
0.182854
0.174421
0.177435
0.152694
0.162491
0.15733
0.170364
0.189699
0.196637
0.196199
0.198346
0.182576
0.18419
0.171866
0.174811
0.152591
0.135813
0.124924
-0.0917272
-0.0555662
-0.0848703
-0.0857534
-0.0224818
-0.0452359
-0.325081
-0.274314
-0.31791
-0.293713
-0.365212
-0.120539
-0.138744
-0.383253
-0.30783
-0.495612
-0.525847
-0.596257
0.577747
0.685241
0.505716
0.290532
0.294278
0.521525
0.616281
0.255919
0.427977
0.45798
0.233852
0.501815
0.211088
0.210602
0.208166
0.207634
0.209155
-0.328347
-0.22826
-0.210889
-0.163539
-0.045469
0.07048
-0.0231883
-0.149062
-0.00922108
0.00122432
0.316997
0.33358
0.2779
0.303099
0.301892
0.128903
0.204369
0.259451
0.21435
0.25788
0.279836
0.240804
0.270504
0.218799
0.176812
0.175643
0.121772
0.142504
0.120293
0.102189
0.200794
0.179742
0.189381
0.181101
0.200762
0.228586
0.223559
0.250033
0.262041
0.18614
0.148049
0.156843
0.18401
0.146401
0.159411
0.17397
-0.105049
-0.204886
-0.116584
-0.409066
-0.321328
-0.337198
-0.382827
-0.343177
-0.05633
-0.757996
-0.728114
-1.36516
0.166157
0.644622
0.374951
0.347364
0.41088
0.388107
0.391552
0.41863
0.425101
0.344749
0.364192
0.366652
0.317442
0.344127
0.368691
0.366429
0.198345
0.0809743
0.0723674
0.0337339
-0.0882184
-0.057335
0.145886
0.0682163
-0.00424943
0.000409316
0.164183
0.0555063
0.120487
0.158375
0.0919981
0.0485979
0.245496
0.313198
0.304668
0.278906
0.194062
0.205979
0.232519
0.268963
0.295292
0.330629
0.19808
0.203452
0.204691
0.202179
0.199686
0.202424
0.202389
0.204937
0.205871
0.208872
0.20779
-0.358455
-0.338163
-0.347709
-0.360992
-0.319786
-0.322098
-0.272063
-0.284317
-0.298168
-0.287513
-0.326965
-0.329263
-0.339147
-0.326417
-0.196837
-0.186941
-0.200411
-0.240619
-0.0593079
0.0765152
0.138859
0.0228949
-0.0824315
-0.057845
-0.0306455
-0.288844
-0.280494
-0.303061
-0.233632
-0.242766
-0.476164
-0.470712
-0.470453
-0.541517
-0.479953
-0.411846
-0.275938
-0.325497
-0.354427
-0.347857
-0.305384
0.184591
0.17829
0.180492
0.174804
0.173469
0.186956
0.190947
0.192473
0.197061
0.198627
0.190588
0.19491
0.198159
-0.347296
-0.217969
-0.276961
-0.33625
-0.251734
-0.189441
-0.228076
-0.205929
-0.272856
-0.265532
-0.309949
-0.432876
-0.375304
0.151018
0.143771
0.161787
0.376044
0.230285
0.146966
0.236873
0.340157
-0.0616128
0.140672
-0.0290618
0.552622
0.440074
0.582633
0.212635
-0.0889597
0.0627711
0.117466
-0.0806678
-0.0102301
0.0120112
-0.0986473
-0.0688287
-0.0398806
0.0617569
-0.0610294
-0.0903204
-0.336464
-0.1526
-0.0225355
-0.0447503
0.0905086
0.155279
-0.0757551
-0.151835
-0.194575
0.307446
0.328126
0.34692
0.31662
0.340663
0.263345
0.253895
0.272695
0.28232
0.276245
-1.09332
-0.801968
-1.74372
-1.0516
-0.604512
0.201628
0.155936
0.443754
0.331001
0.405577
0.387894
0.345129
0.309244
0.319195
0.354454
0.0568336
0.165761
0.139952
0.147065
0.0508177
-0.016495
0.282387
0.275844
0.313616
0.33805
0.303604
0.3381
0.195817
0.195327
0.195029
0.191747
0.189905
0.192036
-0.231522
-0.256434
-0.226887
-0.245804
-0.261749
-0.275919
-0.459223
-0.441519
-0.416457
-0.383427
-0.41436
-0.433619
-0.170021
-0.226216
-0.294788
-0.269417
-0.323513
-0.389227
-0.405634
-0.308662
-0.221093
-0.228324
0.0743654
0.326678
0.151828
0.322228
0.160027
0.217486
0.159079
0.154989
0.187616
0.0527596
0.127627
-0.109529
-0.61316
-0.519904
0.456924
0.477687
0.267596
0.0755267
-0.152652
0.0404211
0.227917
0.166421
0.207107
0.274643
0.268925
-0.323803
-0.251596
-0.00879136
0.218271
-0.0973357
-0.104058
-0.108834
0.0567549
-0.0155078
)
;

boundaryField
{
    wall-4
    {
        type            zeroGradient;
    }
    velocity-inlet-5
    {
        type            zeroGradient;
    }
    velocity-inlet-6
    {
        type            zeroGradient;
    }
    pressure-outlet-7
    {
        type            fixedValue;
        value           uniform 0;
    }
    wall-8
    {
        type            zeroGradient;
    }
    frontAndBackPlanes
    {
        type            empty;
    }
}


// ************************************************************************* //
