/*--------------------------------*- C++ -*----------------------------------*\
| =========                 |                                                 |
| \\      /  F ield         | OpenFOAM: The Open Source CFD Toolbox           |
|  \\    /   O peration     | Version:  4.0                                   |
|   \\  /    A nd           | Web:      www.OpenFOAM.org                      |
|    \\/     M anipulation  |                                                 |
\*---------------------------------------------------------------------------*/
FoamFile
{
    version     2.0;
    format      ascii;
    class       volVectorField;
    location    "26";
    object      U;
}
// * * * * * * * * * * * * * * * * * * * * * * * * * * * * * * * * * * * * * //

dimensions      [0 1 -1 0 0 0 0];

internalField   nonuniform List<vector> 
918
(
(0.985166 -0.000502095 0)
(0.00500483 2.96626 0)
(-0.0252335 1.50051 0)
(0.979702 0.00214866 0)
(0.00330849 1.48329 5.00002e-20)
(-0.00703663 2.94878 -1.86444e-18)
(0.843727 1.18398 7.20812e-19)
(0.378172 0.171597 -9.20672e-21)
(0.999906 -0.000290156 0)
(0.0515504 0.85069 0)
(-0.0207793 0.624103 0)
(0.733348 -0.00916136 0)
(0.0111331 2.93031 0)
(0.00231516 2.79469 0)
(-0.0174091 3.16229 1.07118e-18)
(0.029551 1.25101 1.94508e-19)
(0.478128 0.0710178 5.76566e-19)
(0.190377 1.21688 6.23769e-19)
(0.962873 0.00498789 0)
(-0.0328209 1.04709 0)
(0.105096 0.215046 -4.64026e-19)
(1.00201 -0.00498416 0)
(1.00021 -0.0098028 0)
(0.975709 -0.00644962 0)
(0.628311 -0.0433886 0)
(0.0165734 2.63583 0)
(-0.0149671 2.91009 6.43673e-19)
(-0.051783 1.48541 0)
(-0.0608313 1.6445 0)
(-0.0350209 1.49038 0)
(-0.00626098 1.9855 0)
(0.0359525 1.52227 -3.9522e-20)
(0.026136 1.31114 0)
(-0.0206154 2.98759 -6.51881e-23)
(-0.016698 3.0053 1.44916e-18)
(0.0021072 3.0002 0)
(0.869972 -0.0094478 0)
(0.401993 0.94008 -2.46033e-20)
(0.820162 1.20324 -1.00845e-18)
(0.969327 1.03745 9.47393e-19)
(0.688456 1.29963 -1.67195e-19)
(0.687519 1.28973 9.35731e-19)
(0.418545 0.265692 8.98256e-21)
(0.409607 0.155441 0)
(1.15713 0.559572 0)
(0.379837 0.270423 4.16346e-20)
(0.330526 0.172464 -4.32089e-20)
(0.919608 -0.00751976 0)
(1.00029 0.000154704 0)
(0.999911 0.000347014 0)
(1.00364 -0.00779325 0)
(1.00096 -0.000959566 0)
(1.00017 1.82437e-05 0)
(0.0763704 1.77761 -2.22772e-19)
(0.0430763 0.992364 0)
(0.0961667 0.935111 0)
(0.0211204 0.934649 0)
(0.0415113 0.784107 0)
(-0.0411532 1.95239 0)
(0.0190994 0.758678 0)
(0.0103225 0.643316 0)
(-0.0212825 0.751669 0)
(-0.0295813 0.669447 0)
(0.831158 -0.0135483 0)
(0.853091 0.0238012 0)
(0.766134 0.00206302 0)
(0.83058 0.0272465 0)
(0.711684 -0.0172829 0)
(0.0147001 3.0004 6.82466e-19)
(0.0115246 3.00795 0)
(0.00612932 3.00283 0)
(0.0135548 2.99735 7.6086e-24)
(0.00798586 2.95845 -1.01431e-18)
(0.0144814 2.98202 0)
(0.0108042 2.90364 0)
(0.0250591 2.93021 1.3594e-24)
(0.0042597 2.82508 0)
(0.0315806 2.91571 0)
(-0.00613471 2.74528 0)
(0.31116 3.56244 0)
(-0.132142 3.64455 0)
(0.141146 3.25311 -9.9687e-19)
(-0.0118409 2.98606 0)
(-0.117904 1.89279 0)
(0.0687148 1.44104 -1.91882e-19)
(-0.0140876 1.24491 2.33777e-19)
(0.549757 0.155451 -1.98644e-19)
(0.479363 0.0402493 -1.92117e-19)
(0.528696 0.180483 -5.99415e-19)
(0.463065 0.0923441 -4.02329e-19)
(0.217027 0.908301 0)
(0.269928 1.35815 -6.52564e-19)
(0.387992 1.30735 1.0718e-18)
(0.987615 0.00855985 0)
(0.942171 0.00591384 0)
(1.0003 0.000576838 0)
(1.00287 0.00930485 0)
(1.00301 0.0084287 -1.14039e-18)
(0.991925 0.00971087 8.6105e-19)
(-0.060874 1.13123 0)
(-0.047726 0.934133 0)
(-0.0762892 1.45724 0)
(-0.0471535 1.26242 0)
(-0.0196808 1.17393 0)
(0.15724 0.223612 1.43176e-19)
(0.207489 0.200534 0)
(0.993513 -0.00839411 0)
(0.954357 -0.00647319 0)
(0.793759 0.0302212 0)
(0.755593 0.0402935 0)
(0.682937 -0.033023 0)
(0.965688 -0.00355406 0)
(0.691879 0.0580126 0)
(0.531157 -0.020174 7.69261e-19)
(-0.0359559 2.86529 3.30975e-19)
(0.0425642 2.90908 0)
(0.055633 2.88396 0)
(-0.00473628 2.69811 0)
(-0.0132079 2.98512 5.91434e-19)
(-0.0181608 2.89522 0)
(-0.0154401 2.9881 -1.87165e-18)
(-0.0133492 2.9252 6.46649e-19)
(-0.110609 1.70166 0)
(-0.108616 1.75419 0)
(0.0687234 1.45414 5.04161e-21)
(0.0553912 1.45339 0)
(0.0138416 1.27653 0)
(0.937347 -0.00764589 0)
(0.855256 -0.00929415 0)
(0.864491 0.00730975 0)
(0.948719 -0.00786444 0)
(0.883292 -0.00852485 0)
(0.515338 1.13521 2.01451e-20)
(0.566236 1.188 0)
(0.363714 0.881795 5.38954e-21)
(0.306269 0.742157 0)
(0.929273 1.07639 -2.7397e-19)
(1.04286 0.87711 5.60764e-19)
(0.381872 1.39725 0)
(0.542534 1.36688 0)
(0.546251 1.32777 0)
(0.102587 0.167784 -1.39053e-19)
(0.46175 0.251099 0)
(0.445108 0.144632 1.15498e-19)
(1.01303 0.931016 0)
(1.08104 0.77762 0)
(1.1062 0.719791 -4.90693e-19)
(1.13721 0.61882 0)
(1.1872 0.403865 5.75253e-20)
(0.957275 -0.00863534 0)
(0.962224 -0.0100817 0)
(0.901303 -0.00813988 0)
(0.984114 -0.00917689 0)
(0.97456 -0.00940005 0)
(0.936989 -0.0062816 0)
(1.00018 0.00232947 0)
(1.00089 0.00142617 0)
(0.999907 0.000851319 0)
(0.0348458 2.04084 1.45598e-19)
(0.122134 1.71693 0)
(0.0226361 2.15203 1.18266e-19)
(0.0508664 1.85073 -3.86327e-20)
(0.137213 1.20744 -5.16625e-19)
(0.0458189 1.08029 0)
(0.0950418 1.07842 0)
(0.0162922 0.871131 0)
(-0.00758925 0.724742 0)
(-0.0425351 2.16434 2.8265e-21)
(-0.0126255 1.96882 0)
(-0.0751173 2.09078 1.81023e-19)
(-0.0630855 1.86769 -3.62548e-19)
(0.000459874 0.84434 0)
(0.0202132 0.807786 0)
(-0.000340186 0.683293 0)
(-0.0398554 0.795016 0)
(-0.0366266 0.729435 0)
(0.927095 0.00839493 0)
(0.838782 -0.0107073 0)
(0.921167 -0.000657057 0)
(0.83744 -0.0114463 0)
(0.813887 0.00527668 0)
(0.904148 0.0177378 0)
(0.88229 0.020441 0)
(0.789801 0.00317688 0)
(0.00576464 3.06481 -5.99419e-21)
(0.0164312 3.05789 0)
(0.0146228 2.96912 0)
(0.0085575 2.87637 0)
(0.929838 3.98246 0)
(1.24563 3.31402 1.01105e-18)
(0.070871 3.0783 0)
(-0.0274973 2.90814 0)
(-0.161813 1.74742 0)
(-0.164714 1.86399 0)
(-0.132339 1.80546 0)
(-0.036588 1.99105 -3.13576e-21)
(-0.131598 1.9403 0)
(-0.0804807 1.92234 0)
(-0.0805515 1.5258 1.37898e-20)
(-0.0550957 1.61399 -2.2296e-19)
(0.0150608 1.48615 -2.39248e-19)
(-0.0641268 1.33443 0)
(0.578346 0.124565 2.90972e-19)
(0.495552 0.0151405 -2.84397e-19)
(0.25976 1.54095 0)
(0.262419 0.682796 -2.11344e-19)
(0.178392 1.63076 -7.09011e-19)
(0.226223 1.15992 7.10788e-19)
(0.902648 0.00666999 0)
(0.967629 0.0109542 0)
(0.974774 0.0107859 0)
(0.923676 0.00670062 0)
(-0.054876 0.874678 0)
(-0.0541587 0.991518 0)
(-0.0573295 0.826343 0)
(0.324352 0.262029 3.80366e-19)
(0.26693 0.238735 -4.58025e-19)
(0.276701 0.185422 0)
(1.09343 0.0866964 -3.06036e-21)
(1.07725 0.0404046 0)
(1.00508 0.0413831 0)
(0.900648 0.00239742 0)
(0.601588 0.0957413 0)
(0.631935 0.0700472 -1.23815e-18)
(0.51084 0.000336484 4.72546e-19)
(0.00940527 2.98158 4.19235e-19)
(-0.0326467 2.86664 4.70789e-20)
(0.00373489 3.05025 -1.29572e-20)
(0.0200243 3.04342 4.65544e-19)
(-0.0149849 2.99655 2.15079e-20)
(-0.0129876 2.94943 -8.7034e-23)
(-0.017294 3.01198 -4.07836e-19)
(0.0148577 3.0239 2.95309e-19)
(0.00735884 3.03687 -4.61237e-19)
(0.93046 -0.000953055 0)
(0.937355 -0.00373908 0)
(0.843521 -0.00810501 0)
(0.956964 0.0114343 0)
(0.943574 0.0124149 0)
(0.882543 0.00638513 0)
(0.919666 0.015371 0)
(0.927627 0.014326 0)
(0.840277 0.00613943 0)
(0.721754 1.41677 3.18788e-19)
(0.756193 1.52674 0)
(0.208822 0.355147 2.71091e-20)
(0.184814 0.628956 2.24877e-19)
(0.255614 0.706833 -1.29272e-19)
(0.271623 0.561607 2.42875e-19)
(0.308285 0.730081 7.85066e-19)
(0.1151 0.197584 2.20942e-19)
(0.508451 0.200947 4.31467e-19)
(0.491009 0.225214 1.09116e-19)
(0.458092 0.120497 2.17673e-19)
(1.17546 0.460642 2.91156e-19)
(1.18885 0.255877 3.02292e-19)
(0.0033874 2.1635 1.86867e-21)
(0.0523172 1.91389 0)
(0.958176 0.0315688 0)
(0.928862 0.0166254 0)
(0.858386 -0.00850672 0)
(0.0112762 3.0747 0)
(0.0200175 2.94421 7.98511e-19)
(0.016473 2.95652 0)
(0.00611417 2.85065 -7.92166e-19)
(0.00619211 3.09174 1.89245e-19)
(0.0070583 3.08214 0)
(0.789881 1.83077 -2.37113e-19)
(1.25326 2.51151 6.52373e-19)
(0.772355 1.97109 -1.48519e-18)
(0.020647 2.98338 -3.0709e-19)
(0.0363287 3.00441 0)
(-0.0331323 2.88054 0)
(-0.119485 1.96606 -8.7322e-21)
(-0.104208 1.78546 4.10344e-19)
(-0.101197 1.71907 -6.59787e-21)
(0.274532 1.34893 6.9056e-19)
(0.212127 0.46052 -4.75962e-19)
(0.0624761 1.96257 4.61526e-19)
(0.137775 1.85103 -5.80615e-19)
(0.178455 1.45559 8.60265e-20)
(0.0049256 3.11881 -9.92439e-19)
(0.0110736 3.11924 1.0829e-18)
(-0.00892476 2.98087 5.13793e-19)
(-0.00409769 2.9776 -4.53993e-19)
(-0.0214739 2.88118 -5.23291e-19)
(0.0084823 3.09983 -1.38494e-18)
(0.00196408 3.10493 1.38792e-18)
(0.24797 0.64449 0)
(0.20627 0.633688 -4.39895e-19)
(0.104998 0.213823 1.99082e-19)
(0.330402 0.851209 6.63928e-19)
(0.174762 0.237943 -1.01675e-18)
(1.18026 0.173417 -5.47372e-20)
(1.18884 0.309112 0)
(1.16877 0.121147 1.17361e-19)
(-0.00312721 2.19481 2.40781e-21)
(-0.000928664 2.18704 0)
(0.029501 1.95102 0)
(0.337598 1.2463 -2.50407e-19)
(0.355172 1.0641 -5.33373e-19)
(0.185917 0.332046 9.19279e-19)
(1.00583 -0.0109201 0)
(1.00764 -0.00767205 2.08127e-19)
(-0.138822 1.64488 0)
(-0.143744 1.61936 0)
(1.00222 0.00353967 1.83627e-21)
(1.00369 0.0094263 4.28284e-19)
(-0.0314105 2.01477 4.01361e-21)
(-0.0120704 2.04389 0)
(0.0373022 3.1809 1.19308e-19)
(0.399186 3.49756 0)
(1.12665 0.645492 6.26968e-20)
(1.01297 0.0130886 -2.08317e-21)
(1.02111 -0.0105651 0)
(1.00173 0.000137936 1.00527e-22)
(0.104558 1.35643 0)
(0.143812 2.57605 0)
(0.045597 1.08746 0)
(-0.0117201 2.62694 -2.12051e-19)
(-0.142645 2.62769 -2.32834e-19)
(1.00711 0.0283526 2.65685e-21)
(1.05721 -0.00405005 0)
(1.08094 0.0204767 0)
(-0.184324 1.86606 0)
(-0.104285 2.28135 0)
(-0.236085 1.34244 0)
(0.275592 1.46624 -4.29964e-19)
(1.01124 -0.00972004 0)
(1.00934 -0.0149885 0)
(1.00251 0.000702758 2.65664e-19)
(1.00548 -0.00489868 -3.12526e-19)
(1.0012 -0.00103955 0)
(-0.243805 1.78945 0)
(-0.187556 1.65518 0)
(-0.195809 1.74331 0)
(-0.221011 1.36527 0)
(-0.190302 1.5086 0)
(-0.167115 1.43511 0)
(1.03444 -0.00707798 0)
(1.02074 0.0153171 -1.06431e-21)
(0.784111 1.25653 5.12638e-19)
(1.0022 0.000374361 -2.63377e-19)
(1.00411 0.00527303 3.12207e-19)
(1.00116 0.00205021 0)
(1.01292 0.0102432 2.58787e-19)
(1.00796 0.00820296 -3.20773e-19)
(1.00871 0.0145376 0)
(-0.0829001 2.26854 0)
(-0.0372334 2.13924 -1.19597e-19)
(-0.0269099 2.15792 1.01126e-19)
(1.1982 0.260077 -5.72493e-20)
(1.1358 0.0893575 0)
(0.047638 3.07742 -5.16623e-19)
(0.0667863 2.85219 -4.09989e-20)
(0.144774 3.19504 8.29397e-19)
(0.139303 3.22422 -5.20658e-21)
(0.137647 3.23806 0)
(0.020365 3.13809 1.13261e-19)
(0.078326 3.16107 5.03446e-19)
(0.0708587 3.18789 -2.18513e-19)
(0.023897 3.12887 0)
(0.658453 0.321347 0)
(0.57769 0.371897 0)
(1.09783 0.674766 -2.42138e-19)
(1.0955 0.807868 3.76581e-19)
(1.15622 0.565927 0)
(1.18628 0.512049 0)
(1.01616 0.0132653 -4.7883e-19)
(1.01498 0.0141471 5.9805e-19)
(1.02505 -0.0104391 0)
(1.02299 -0.0124607 0)
(1.00662 0.00239141 0)
(1.01057 0.00361196 0)
(1.00438 0.00181122 0)
(1.00981 0.00621397 0)
(1.00787 0.00579778 0)
(1.00449 0.00451387 0)
(0.094147 1.35751 0)
(0.0879442 1.31601 0)
(0.11946 1.38319 0)
(0.138262 1.40719 0)
(0.146429 2.59751 0)
(0.189221 2.65611 -2.06866e-19)
(0.099117 2.65466 0)
(0.0794202 2.65716 -1.15612e-20)
(0.0272832 2.68071 2.08025e-19)
(0.029993 1.04508 0)
(-0.0351015 0.943877 0)
(0.12609 1.12726 0)
(0.0489328 1.07526 0)
(0.0440517 2.09477 3.43163e-19)
(-0.128991 2.64771 -2.94528e-19)
(-0.0316715 2.68024 -3.56691e-19)
(-0.0924057 2.67556 0)
(-0.187907 2.65793 6.22166e-19)
(-0.211117 2.61994 3.79475e-19)
(0.0774379 2.17226 -2.25123e-19)
(-0.0939527 2.55878 4.16695e-19)
(-0.00888993 2.53489 4.29076e-19)
(1.01563 0.0349498 4.77592e-19)
(1.00857 0.0205279 -5.86896e-19)
(1.00745 0.038745 -4.85908e-19)
(0.989479 0.0180815 6.28657e-19)
(1.05786 0.00182585 0)
(1.04516 -0.0121828 0)
(1.08011 0.0266178 0)
(1.06409 0.00476843 0)
(1.06025 -0.0041509 0)
(1.11981 0.079533 0)
(1.09245 0.0436052 0)
(1.094 0.0365242 0)
(-0.12541 2.03089 2.24698e-21)
(-0.213846 1.96659 0)
(-0.151784 1.96315 0)
(-0.167228 2.41244 -1.20967e-19)
(-0.154922 2.4173 6.60686e-21)
(-0.351195 1.87656 -7.69669e-20)
(-0.268879 1.79958 7.97072e-20)
(-0.302869 1.58142 0)
(-0.283433 1.6167 0)
(-0.246868 1.6441 0)
(-0.250694 1.2912 0)
(-0.149387 1.12432 0)
(0.371635 1.47775 8.17209e-19)
(0.404803 1.49052 3.24362e-19)
(0.591314 2.43982 -1.57418e-19)
(0.407146 2.53322 4.31119e-19)
(0.352774 2.08529 -4.49138e-20)
(1.02097 -0.00855291 0)
(1.01546 -0.00994535 0)
(1.01479 -0.0156314 0)
(1.0078 -0.00146483 0)
(1.00494 -0.00115432 0)
(1.00772 -0.00491099 0)
(1.00922 -0.00376006 0)
(1.01405 -0.00452951 0)
(1.02151 0.0157286 4.56609e-19)
(1.01801 0.0157426 -5.88748e-19)
(1.02212 0.0175421 -4.5721e-19)
(1.01942 0.0163202 5.72359e-19)
(0.752892 1.30736 0)
(0.687567 1.36113 6.00502e-19)
(0.862635 1.19934 3.51403e-19)
(0.907934 1.15596 -4.67453e-19)
(1.15861 2.61728 -5.16535e-19)
(0.831669 0.0985792 3.01903e-19)
(1.13638 0.103527 0)
(1.17983 0.184655 5.02312e-20)
(1.1648 0.158038 2.2493e-21)
(0.995347 0.12731 0)
(0.141019 2.96396 1.5352e-19)
(0.119452 2.86968 -6.74597e-19)
(0.0307352 2.36568 4.7925e-19)
(0.09581 0.0461125 -2.0147e-19)
(0.344107 3.42624 -4.3122e-19)
(0.197588 3.31746 0)
(0.239876 3.36051 5.61585e-19)
(0.250868 3.03696 -8.06257e-19)
(0.344924 3.19632 0)
(0.00775801 3.12052 2.64848e-20)
(0.0183638 3.12944 -3.34364e-19)
(0.0163812 3.12545 4.92143e-19)
(0.0368862 3.13959 0)
(0.035138 3.15123 0)
(1.22063 2.61789 0)
(0.548645 0.841833 -2.51967e-19)
(1.02645 0.983717 -1.98154e-19)
(0.964441 1.05225 0)
(0.809592 0.953216 4.95398e-20)
(1.04913 0.865839 3.01776e-20)
(0.383653 0.422557 -5.37613e-19)
(0.700142 0.332351 -2.34111e-20)
(0.688247 0.25749 2.35516e-19)
(0.591381 0.402792 1.8117e-20)
(0.516222 0.380598 -7.39603e-19)
(0.669348 0.357006 0)
(0.691079 0.433153 3.87409e-19)
(0.696172 0.431842 0)
(0.628373 0.389262 0)
(0.613322 0.322536 0)
(0.777955 0.608511 1.42075e-19)
(1.19548 0.278257 3.22592e-20)
(1.19074 0.414456 0)
(1.20419 0.362435 0)
(0.770237 0.204256 3.45735e-19)
(0.823903 0.542779 -1.93781e-19)
(0.731397 0.515337 3.16824e-19)
(0.918914 0.418294 -2.99447e-19)
(1.01996 0.0144443 3.16529e-19)
(1.01796 0.0140536 -3.22149e-19)
(1.01599 0.0154635 0)
(1.03546 -0.00655323 0)
(1.02932 -0.00884585 -2.90627e-19)
(1.02706 -0.0128891 2.87576e-19)
(1.02526 0.00948765 0)
(1.02394 0.0129358 0)
(1.01146 0.00393336 0)
(1.01437 0.00869714 0)
(1.01522 0.00346705 0)
(1.01408 0.00270379 0)
(0.0687783 1.34345 0)
(0.0712697 1.26589 0)
(0.149107 1.33749 3.25913e-19)
(0.258047 1.46423 2.44997e-19)
(0.156649 1.43692 5.20247e-19)
(0.184598 1.44494 -8.51175e-19)
(0.180431 1.37237 0)
(0.130538 1.60467 2.70964e-19)
(0.109436 1.56782 0)
(0.352428 2.04121 6.52589e-20)
(0.351469 2.36959 2.41342e-19)
(0.181182 1.44177 -2.36478e-19)
(0.263935 1.36214 1.85147e-19)
(0.199038 1.3532 -1.48363e-19)
(0.274464 1.30148 3.03296e-19)
(0.245765 1.57983 0)
(0.251607 1.61912 -1.97985e-19)
(0.0454494 2.26737 1.00307e-19)
(0.0464201 2.66652 0)
(0.0670065 2.39309 -1.74429e-19)
(0.0317737 2.41426 0)
(0.0631252 2.6646 1.15333e-20)
(0.0470488 2.69599 0)
(0.146577 1.48291 4.39414e-19)
(0.20739 1.60953 0)
(0.183726 1.3741 0)
(0.192525 1.36214 -4.95349e-19)
(-0.0130826 2.65417 -3.65734e-20)
(0.0373428 2.69166 -2.72875e-19)
(0.0107224 2.71873 -1.91971e-21)
(-0.0738616 2.15704 -3.53466e-19)
(0.122698 1.88053 -1.7322e-19)
(-0.071653 0.984745 0)
(-0.0540966 0.918485 0)
(0.0890645 1.64539 -4.49029e-19)
(0.144913 1.47241 -4.55363e-19)
(0.136617 1.62558 5.78501e-19)
(0.0642831 1.63513 0)
(-0.286985 2.23904 4.90059e-19)
(-0.234303 2.42908 -1.91002e-19)
(-0.254721 2.4458 6.38246e-20)
(-0.148516 2.11835 4.21739e-19)
(-0.248319 2.55727 1.31661e-19)
(-0.205855 2.56039 -4.97306e-19)
(1.02097 0.0206658 -3.10427e-19)
(1.01818 0.0266087 3.12977e-19)
(1.01468 0.0180852 0)
(1.0168 0.054595 4.4711e-19)
(0.996395 0.0455201 -5.2548e-19)
(0.962025 0.0270213 6.06935e-19)
(1.01525 0.0870289 -5.79863e-20)
(1.04165 -0.00688955 0)
(1.04818 -0.00415683 2.60862e-19)
(1.03772 -0.0110455 -2.60625e-19)
(1.06502 0.0341425 -1.44021e-20)
(1.05781 0.0142692 1.28473e-19)
(1.06284 0.0465134 0)
(1.05857 0.0385673 -4.77376e-20)
(1.03756 0.0340458 0)
(1.03211 0.0314624 0)
(1.02714 0.0125718 0)
(1.02444 0.0151693 0)
(1.04375 0.0254811 9.92708e-20)
(1.03981 0.0189184 -2.26268e-19)
(1.05339 0.0214556 -1.01094e-19)
(1.05136 0.0224402 -1.15923e-19)
(1.07071 0.0554933 2.08455e-19)
(1.08226 0.0490954 0)
(1.08972 0.0946461 0)
(-0.293427 2.20646 1.18077e-19)
(-0.252397 2.01005 6.1916e-21)
(-0.257434 2.04301 0)
(-0.181868 2.20504 -1.17739e-19)
(-0.126631 2.08238 -8.3922e-21)
(-0.155157 2.14174 1.94978e-20)
(-0.207339 2.61654 -3.22635e-19)
(-0.224063 2.5382 2.37503e-20)
(-0.251647 2.54244 -1.05208e-19)
(-0.197878 2.547 2.22405e-19)
(-0.205218 2.54749 -2.53904e-19)
(-0.421933 1.74096 -1.07874e-20)
(-0.359278 1.90322 -1.95242e-19)
(0.36267 1.4086 -4.02962e-19)
(0.358871 1.35182 -3.82688e-19)
(0.637313 1.40897 -5.80802e-19)
(0.506586 1.47353 -3.13084e-19)
(0.555051 1.44983 0)
(0.588127 2.41328 1.26211e-19)
(0.655377 2.40295 2.28288e-19)
(0.412353 2.50898 7.97082e-20)
(0.405944 2.55377 -1.77425e-19)
(0.515099 2.5113 2.76952e-19)
(0.545276 2.453 0)
(0.488642 2.50033 -3.58623e-19)
(0.250797 2.5818 5.99615e-19)
(0.355676 2.55648 -7.96658e-20)
(0.287136 2.6408 -9.12464e-19)
(0.928603 2.38273 2.50895e-19)
(0.827435 2.3798 0)
(1.01065 7.54508e-05 1.05227e-20)
(1.01489 -0.00557267 -8.54486e-21)
(1.01756 -0.0037176 -1.54757e-19)
(1.01473 -0.000851953 1.55375e-19)
(1.01211 0.000831627 0)
(0.624429 1.27983 0)
(0.636461 1.15724 0)
(0.737837 1.06649 0)
(0.628065 1.13097 0)
(1.18591 2.63421 5.68842e-20)
(1.07543 2.37329 0)
(0.843767 2.22041 -1.54133e-21)
(0.827722 2.4775 0)
(0.921441 2.56299 6.64734e-21)
(0.957576 2.51667 -4.43706e-21)
(0.840832 0.147623 0)
(0.809847 0.138594 8.66997e-20)
(0.926639 0.122851 4.48e-19)
(0.859971 0.117754 -1.78768e-19)
(0.843618 0.0635307 -5.36851e-19)
(1.04918 0.219085 -2.67102e-19)
(0.965488 0.273078 -1.57326e-20)
(0.906067 0.270763 4.08796e-19)
(0.983099 0.200071 3.04615e-19)
(0.940449 0.160455 -5.65819e-19)
(0.91337 0.169478 7.30906e-20)
(0.940771 0.232254 -1.42882e-19)
(0.917465 0.191918 0)
(0.979014 0.159322 2.71897e-19)
(1.02673 0.167267 0)
(1.02015 0.193148 0)
(1.08351 0.11148 8.85444e-20)
(1.05191 0.159762 -1.30801e-20)
(1.04364 0.222642 -4.95766e-20)
(1.07843 0.193598 0)
(1.02738 0.0372315 2.35318e-19)
(1.04735 0.0483329 2.80772e-19)
(1.04011 0.0349358 -2.34484e-19)
(1.04844 0.0543096 -1.8896e-19)
(1.02445 0.0595466 -3.14731e-19)
(0.980359 0.129197 0)
(0.999199 0.081698 0)
(0.970629 0.0438662 -2.19732e-19)
(0.928604 0.0603379 9.10572e-20)
(1.03676 0.0868523 2.65015e-19)
(1.05609 0.11236 -2.70402e-19)
(1.06111 0.13978 2.47313e-19)
(1.02584 0.127782 0)
(1.06544 0.10009 0)
(1.05368 0.0802277 -1.12488e-19)
(1.04771 0.0836978 -2.12402e-19)
(0.582125 1.08856 -8.45888e-20)
(0.61913 1.43227 1.87197e-19)
(1.16013 2.75297 8.78137e-20)
(1.22723 3.09168 -6.74827e-20)
(1.25099 2.73333 5.34277e-19)
(1.28306 2.71679 -3.27759e-19)
(1.21071 2.35599 -8.73328e-21)
(1.21375 2.99608 1.82275e-19)
(1.23205 2.96152 -1.96222e-19)
(1.2191 3.24541 -2.63034e-19)
(1.38084 2.97806 3.64074e-19)
(1.37307 2.89575 0)
(0.542944 0.849612 -1.49749e-20)
(0.151003 1.27158 3.82828e-19)
(0.52543 0.484907 3.53633e-19)
(0.364228 0.248696 3.84829e-19)
(0.535634 0.40567 4.15516e-19)
(0.545681 0.489006 -6.45272e-19)
(0.547667 0.491035 5.29367e-19)
(0.502954 0.426445 -2.13107e-19)
(0.438416 0.365171 4.89806e-19)
(0.773087 0.257125 -1.93242e-19)
(0.734684 0.287955 0)
(0.727624 0.225971 1.07377e-20)
(0.715547 0.519609 1.98674e-19)
(0.682358 0.489682 -7.33527e-19)
(0.60546 0.484455 1.70645e-20)
(0.619424 0.475028 0)
(0.673163 0.724405 1.59688e-19)
(0.807887 0.760392 7.25663e-20)
(0.736086 0.836563 -9.22419e-20)
(0.849972 0.796503 -2.25479e-20)
(0.879844 0.835936 1.22723e-20)
(0.888678 0.837452 -1.25646e-20)
(0.81972 0.638469 -2.42414e-19)
(0.898412 0.693415 2.09579e-20)
(0.951795 0.703163 0)
(0.942014 0.677794 -2.1272e-20)
(0.992007 0.313803 6.7718e-20)
(1.10773 0.28667 1.21706e-20)
(1.03339 0.254558 1.09174e-19)
(0.972019 0.346387 -1.5363e-19)
(1.01797 0.4111 0)
(1.07227 0.401014 0)
(0.894083 0.353417 5.24635e-21)
(0.837039 0.286844 0)
(0.853698 0.277062 2.09769e-19)
(0.889583 0.278292 -6.18469e-21)
(0.911012 0.421527 8.20156e-19)
(0.868893 0.485454 2.08782e-19)
(0.87192 0.44978 -2.6455e-19)
(0.8027 0.436708 2.83955e-19)
(0.786627 0.43823 1.92042e-19)
(0.753932 0.423581 -1.88452e-19)
(1.02776 -0.000630379 2.45115e-19)
(1.02004 -5.66883e-05 0)
(1.01848 0.00102078 1.65555e-19)
(1.02173 -0.00207023 -3.72755e-19)
(1.02213 0.0039322 1.81013e-19)
(1.02031 0.0107408 -3.80016e-19)
(1.02139 0.0102299 0)
(1.02107 0.0104335 -8.01457e-20)
(1.01589 0.00741375 2.01079e-19)
(1.01671 0.0100366 -1.0051e-19)
(1.0175 0.00924943 7.39063e-20)
(0.0883963 1.21044 0)
(0.173259 1.29589 0)
(0.0796474 1.29833 0)
(0.0629068 1.15404 0)
(0.0641037 1.39016 -6.93219e-19)
(0.0764533 1.35546 2.25958e-19)
(0.0994359 1.49952 1.5239e-19)
(0.0789211 1.36214 -1.72904e-19)
(0.11129 1.48653 4.28068e-19)
(0.0955777 1.46106 -3.25722e-19)
(0.0769302 1.37243 -5.38861e-21)
(0.0924059 1.38504 4.29495e-19)
(0.117821 1.33804 6.47745e-20)
(0.132635 1.38779 5.83397e-20)
(0.103032 2.39015 1.91885e-19)
(0.0996785 2.43062 0)
(0.178349 2.06879 -3.92757e-20)
(0.0912247 1.72044 -1.11286e-19)
(0.226339 2.06994 2.66157e-20)
(0.215775 2.45251 0)
(0.269413 2.40609 -1.3218e-19)
(0.304905 2.40704 9.42681e-20)
(0.234258 2.01505 7.7454e-20)
(0.155629 2.18282 3.60978e-21)
(0.145868 2.30877 0)
(0.0537823 1.90528 4.38911e-19)
(-0.0259673 2.41385 4.94695e-19)
(0.0256653 2.21388 0)
(0.0157832 2.44424 -1.74147e-20)
(-0.00229469 2.30418 -2.03594e-19)
(0.0806259 1.36093 -8.61792e-20)
(-0.023035 1.2474 1.42151e-18)
(-0.0291353 1.32841 -3.80218e-19)
(0.0843275 1.44446 -4.97553e-19)
(0.121779 1.52673 0)
(-0.128225 1.18982 0)
(-0.195577 1.11644 -3.24401e-19)
(-0.237441 1.17834 1.07116e-19)
(-0.164417 1.16722 0)
(-0.129666 1.01142 -2.64233e-19)
(-0.115974 1.01411 5.02353e-19)
(1.04119 0.00872762 0)
(1.04577 0.00477415 -2.44793e-20)
(1.04023 0.0171315 -1.80104e-19)
(1.04906 0.0127299 0)
(1.05022 0.0117526 0)
(1.03531 0.00868844 -6.17344e-21)
(1.03127 0.00996144 2.96088e-19)
(1.03111 0.0137606 3.57933e-19)
(1.02625 0.0186178 0)
(1.02414 0.0195287 0)
(1.03572 0.0207258 1.81166e-19)
(1.02737 0.0252289 0)
(1.02636 0.0235248 0)
(-0.355319 2.22328 0)
(-0.401231 1.96864 -4.68947e-20)
(-0.408056 2.12589 -1.12889e-19)
(-0.256103 1.32545 0)
(-0.44224 1.85696 -2.14706e-19)
(-0.414852 1.67087 6.77815e-20)
(-0.368156 1.40314 0)
(0.387576 1.69732 0)
(0.359394 1.27875 6.27151e-19)
(0.300743 1.33668 0)
(0.411088 1.27194 -8.17178e-19)
(0.458867 1.44352 0)
(0.438039 1.38476 3.82001e-19)
(1.02882 2.70469 -4.68726e-21)
(0.952757 2.41718 -3.168e-19)
(0.893854 2.17546 3.59687e-19)
(0.839602 2.37334 1.24039e-19)
(0.84489 2.51939 0)
(0.912162 2.51277 0)
(0.909181 2.37662 0)
(0.893969 2.35453 -4.71228e-19)
(0.691728 2.49541 -2.28853e-20)
(0.801382 2.48676 -1.5683e-20)
(0.813165 2.45903 1.20035e-20)
(0.688738 2.38247 0)
(0.792571 2.38138 0)
(0.752304 2.39117 -2.32517e-19)
(0.770226 2.50729 0)
(0.591655 1.08643 0)
(0.491317 0.942247 -2.27056e-20)
(0.548848 0.968885 -2.71692e-21)
(0.519855 1.06861 0)
(0.523377 1.02484 3.67164e-20)
(0.758812 0.854697 7.91327e-21)
(0.76463 0.997761 0)
(0.740388 0.955354 -5.4238e-20)
(0.62527 1.01991 0)
(0.633663 0.935458 0)
(1.16435 2.7743 4.44862e-20)
(1.14303 2.83814 1.14994e-19)
(0.935253 2.3645 -2.68253e-19)
(0.901749 2.34041 3.092e-20)
(1.12771 2.74767 0)
(1.07932 2.71849 -3.70094e-20)
(1.08604 2.49686 -8.81686e-20)
(0.982069 2.23477 -2.97273e-20)
(0.496632 1.37179 0)
(0.505791 1.07796 7.46003e-20)
(0.543056 1.14964 0)
(0.860037 0.216929 0)
(0.818976 0.168814 0)
(0.77539 0.156881 0)
(0.850621 0.223273 -3.29919e-19)
(0.793058 0.221864 2.03997e-19)
(0.937536 0.0506405 -1.86926e-19)
(0.952519 0.0993769 0)
(0.925341 0.104676 8.3447e-20)
(0.884575 0.081857 3.41273e-19)
(0.869535 0.0458859 -2.09755e-19)
(1.16778 3.37055 -9.69825e-19)
(1.21465 3.28992 0)
(1.16666 3.3975 -1.91112e-18)
(0.653274 3.55751 1.64039e-18)
(0.881016 3.12306 3.59149e-19)
(0.520666 0.875536 2.5494e-19)
(0.443175 0.872239 0)
(0.353897 0.518415 -8.7272e-20)
(0.4554 0.689387 4.08788e-19)
(0.530518 0.485593 -1.14888e-19)
(0.509906 0.524471 1.34848e-19)
(0.650986 0.537889 2.76636e-19)
(0.680009 0.562405 0)
(0.639917 0.617411 0)
(0.592729 0.557267 0)
(0.949438 0.58447 -4.85193e-20)
(0.871429 0.531937 -2.01948e-19)
(0.898729 0.566002 9.97517e-20)
(0.928407 0.501517 -1.4844e-19)
(1.03137 0.46836 0)
(1.04316 0.556177 -8.81547e-21)
(0.828835 0.388572 -4.24259e-19)
(0.833952 0.372299 -4.91177e-19)
(0.783825 0.386028 3.32797e-19)
(0.777095 0.352829 -3.75039e-19)
(0.833625 0.307758 -2.77346e-19)
(0.788152 0.305286 3.41248e-19)
(1.02634 0.00537802 -1.92395e-19)
(1.02604 0.00587647 3.94665e-19)
(1.02917 -0.00104287 2.32389e-19)
(1.03325 0.000818914 -2.87715e-19)
(1.03319 0.00752653 0)
(1.02977 0.00778132 -4.63581e-19)
(0.0360446 1.6602 -6.13711e-20)
(0.0550032 1.57931 0)
(0.0582712 1.69675 -4.99375e-19)
(0.0727602 1.68153 4.60102e-19)
(0.0730331 1.50289 -2.82294e-19)
(0.0870905 1.48967 0)
(-0.219812 2.12483 0)
(-0.198702 1.63035 1.40552e-19)
(-0.361526 1.62374 -1.28235e-19)
(-0.383109 1.86284 -5.07681e-20)
(-0.332157 2.24105 2.21249e-19)
(-0.29352 2.24419 -1.11739e-19)
(0.491773 1.38021 3.9573e-19)
(0.486363 1.38575 -4.24898e-19)
(0.432166 1.27079 4.07368e-19)
(0.42582 1.29245 -2.48351e-20)
(0.613496 1.28187 0)
(0.53473 1.37581 5.21988e-19)
(0.550047 1.38475 -5.07793e-19)
(0.439677 1.25876 -3.92785e-19)
(0.493458 1.21385 0)
(0.549027 1.18282 0)
(0.656468 2.45243 3.36381e-20)
(0.668362 2.4773 5.53243e-19)
(0.717339 2.49448 -3.80713e-19)
(0.623639 2.47717 -1.22911e-19)
(0.559969 2.57114 1.05354e-19)
(0.512661 2.54364 -3.13628e-19)
(0.966829 2.37858 -1.93751e-19)
(1.00933 2.39943 0)
(0.909068 2.15446 -2.60379e-19)
(1.04764 2.69902 0)
(1.04959 2.68595 0)
(0.624852 2.28506 2.1613e-19)
(1.04839 3.17129 4.62719e-19)
(0.919174 3.04016 -4.04204e-19)
(0.290013 0.945745 0)
(0.338231 0.813023 -1.66411e-19)
(0.497523 0.769499 -8.95992e-20)
(0.401128 2.03181 0)
(0.470299 2.78863 -2.5001e-19)
(0.431027 2.55342 0)
(0.683938 0.673187 -3.31886e-19)
(0.755321 0.669226 4.254e-19)
(0.77528 0.619772 -4.15923e-19)
(0.668739 0.646866 -4.87643e-20)
(0.714398 0.59766 -1.99887e-19)
(1.00952 2.77713 -3.51797e-19)
(1.04299 2.83192 2.65722e-19)
(0.650254 2.17571 9.62475e-20)
(0.60907 1.73337 -9.73315e-20)
(0.705756 1.92306 8.7862e-20)
(0.994294 2.46023 -7.00176e-20)
(0.99651 2.45576 -1.41941e-19)
(0.675035 1.8669 -3.55715e-21)
(0.463594 1.35228 -6.85756e-20)
)
;

boundaryField
{
    wall-4
    {
        type            noSlip;
    }
    velocity-inlet-5
    {
        type            fixedValue;
        value           uniform (1 0 0);
    }
    velocity-inlet-6
    {
        type            fixedValue;
        value           uniform (0 3 0);
    }
    pressure-outlet-7
    {
        type            zeroGradient;
    }
    wall-8
    {
        type            noSlip;
    }
    frontAndBackPlanes
    {
        type            empty;
    }
}


// ************************************************************************* //
