/*--------------------------------*- C++ -*----------------------------------*\
| =========                 |                                                 |
| \\      /  F ield         | OpenFOAM: The Open Source CFD Toolbox           |
|  \\    /   O peration     | Version:  4.0                                   |
|   \\  /    A nd           | Web:      www.OpenFOAM.org                      |
|    \\/     M anipulation  |                                                 |
\*---------------------------------------------------------------------------*/
FoamFile
{
    version     2.0;
    format      ascii;
    class       volScalarField;
    location    "5";
    object      p;
}
// * * * * * * * * * * * * * * * * * * * * * * * * * * * * * * * * * * * * * //

dimensions      [0 2 -2 0 0 0 0];

internalField   nonuniform List<scalar> 
918
(
0.261938
1.07869
0.00724211
0.262377
0.00157093
1.04634
-0.669828
0.413948
0.243698
-0.0971336
0.0271016
0.229909
0.910177
0.675928
-1.4752
0.0210981
0.377153
-0.760808
0.226223
0.0141517
0.643783
0.253404
0.253089
0.231284
0.28404
0.697481
0.788696
0.00295734
0.00103232
0.00565748
-0.00136328
0.00192393
0.0100557
0.929569
0.980281
1.00282
0.214574
-0.273753
-0.418368
-0.571077
-0.515335
-0.798601
0.398892
0.402626
-0.404964
0.419898
0.446899
0.22431
0.241834
0.242724
0.243165
0.245224
0.246336
0.281923
-0.124818
-0.1993
-0.0544911
-0.036272
0.0878501
0.0260121
0.0318864
0.031803
0.03361
0.170438
0.226847
0.224901
0.235489
0.239633
1.01748
0.988078
1.01346
0.932949
0.946301
0.887228
0.857787
0.699306
0.718181
0.665055
0.652167
-1.91398
-2.86498
-0.882847
-0.583604
0.00329027
0.0279117
0.0352451
0.364138
0.379559
0.372295
0.389253
0.688354
-0.643146
-0.894719
0.234589
0.232069
0.247237
0.247987
0.244822
0.240738
0.0192424
0.0284435
0.00400627
0.0145942
0.0117529
0.592785
0.559782
0.229293
0.231152
0.248599
0.256657
0.254631
0.0180801
0.295494
0.318158
0.450468
0.648576
0.659551
0.664829
0.764863
0.730098
0.824528
0.849749
0.00517293
0.000782711
0.0143246
0.011964
0.0152002
0.206722
0.203726
0.22227
0.215954
0.214727
-0.314711
-0.385702
-0.20555
-0.0581855
-0.361292
-0.502432
-0.691764
-0.635646
-0.891596
0.767513
0.383215
0.397946
-0.320819
-0.305641
-0.438032
-0.263146
-0.363011
0.220529
0.224616
0.221833
0.226258
0.220657
0.227832
0.245424
0.243023
0.243516
0.303077
0.359357
0.245559
0.216267
-0.398917
-0.20752
-0.399199
-0.0170388
-0.00425324
0.101585
0.113371
0.0766067
0.0726968
0.0183146
0.0236334
0.0239135
0.0365244
0.0317373
0.16577
0.155738
0.177998
0.190887
0.218928
0.222418
0.22133
0.223456
0.806224
0.831019
0.8389
0.81236
-3.82936
-6.65966
-0.231658
-0.0415763
-0.000396109
0.00282205
0.0018067
-0.00077515
0.00554049
0.000776644
0.0505101
0.0454968
0.0384589
0.0384754
0.350973
0.357309
0.659876
0.723937
0.605168
0.596298
0.223498
0.226653
0.234828
0.231142
0.0314852
0.0280533
0.0286387
0.447596
0.508142
0.486733
-0.0188538
-0.107978
0.064505
0.0867474
0.339413
0.32976
0.347775
0.529047
0.567353
0.858922
0.876753
0.875499
0.881739
0.926278
0.938458
0.90604
0.193394
0.19934
0.193545
0.226041
0.219141
0.22634
0.219444
0.221863
0.221727
-0.436849
-0.657675
0.529575
0.356523
0.0463029
0.270297
0.754729
0.812419
0.374665
0.38022
0.387723
-0.205211
-0.300791
0.191084
0.170346
0.110279
0.142045
0.124756
0.778062
0.7424
0.789977
0.763825
0.729527
0.751139
-0.659962
-1.75251
-1.05097
0.385723
0.173613
0.265071
0.067475
0.0527072
0.0578625
0.706563
0.765944
0.391036
0.494497
0.491071
0.611504
0.648846
0.70229
0.619405
0.659097
0.701191
0.682385
0.690789
0.565152
0.679601
0.764651
0.786297
-0.116837
-0.152393
-0.24133
0.120591
0.157986
0.138964
0.734965
0.753709
0.794427
0.226305
0.232894
0.00869498
0.0155259
0.246147
0.248984
0.00536876
0.0103561
0.248949
-1.28426
-0.0884964
0.231395
0.22345
0.238543
-0.0673822
0.272345
0.0374231
0.0976173
0.0657546
0.224592
0.179451
0.152211
0.0100994
0.02031
0.0196565
-0.312657
0.2313
0.221651
0.239521
0.242891
0.244984
0.0136442
0.0123664
0.00714982
0.0169
0.0162957
0.0195973
0.209036
0.217588
-0.202182
0.236855
0.240605
0.241707
0.230348
0.242434
0.234532
0.0186628
0.0140742
0.0120854
-0.0237375
0.0895669
0.580393
0.690142
0.571758
0.227559
-0.131419
0.435443
0.499512
0.374854
0.562933
0.358731
0.390781
-0.0405152
-0.149693
-0.048311
-0.111741
0.228829
0.226541
0.218304
0.220267
0.23564
0.233351
0.234848
0.235137
0.237909
0.236587
-0.0198357
-0.0359482
-0.0789532
-0.154237
0.291842
0.356005
0.223398
0.233278
0.141486
0.0422418
0.0363492
0.0370601
0.0247283
0.068779
0.0699531
0.0821318
0.0787921
0.0522534
0.0527501
0.0662233
0.0665742
0.0731243
0.222513
0.221713
0.227194
0.236603
0.186376
0.189029
0.16001
0.179712
0.165323
0.120907
0.148426
0.12612
0.00919892
0.00917943
0.00835876
0.0214752
0.0322001
0.0183872
0.0147627
0.0137535
0.0121856
0.0124558
0.0242446
0.0275589
-0.247197
-0.400962
0.646784
0.547339
0.328156
0.22738
0.231158
0.221487
0.229186
0.237782
0.244694
0.240277
0.229904
0.220683
0.221055
0.217592
0.218848
-0.068896
-0.281993
-0.121998
-0.214158
-0.331134
0.323236
0.0977228
0.0371652
0.0346084
0.228326
0.852974
0.694262
0.643349
0.651302
-0.827714
-0.33427
-0.683874
-0.0927796
-0.448569
0.544612
0.592616
0.610678
0.549088
0.51284
-0.546243
-0.0624143
-0.195925
-0.139346
-0.00332162
-0.0877331
0.498324
0.349376
0.36235
0.382866
0.425281
0.349906
0.321312
0.322995
0.366901
0.376034
0.153183
0.00722729
-0.0423646
-0.0701304
0.348954
0.199697
0.254676
0.197784
0.223637
0.22486
0.225916
0.214486
0.216041
0.216742
0.218481
0.221265
0.228671
0.226851
0.22848
0.230885
-0.0151591
-0.00854402
-0.0081747
-0.185495
-0.174965
-0.259537
-0.087949
0.130637
0.103443
0.284648
0.38384
0.0746534
-0.0802231
-0.0429063
0.033425
0.162622
0.150242
0.11182
0.152958
0.173063
0.145041
0.20084
0.185264
0.0469855
0.060628
0.0449444
0.0393253
0.102229
0.122532
0.117732
0.0532575
0.0567243
0.0398842
0.0398679
0.0829367
0.0598157
0.0714955
0.0763996
0.024203
0.0261182
0.0355052
0.0433716
0.043186
0.0433887
0.216306
0.219056
0.220797
0.228208
0.234306
0.250172
0.227924
0.204425
0.193386
0.199638
0.17856
0.194392
0.184787
0.195739
0.205682
0.216474
0.216261
0.216734
0.204067
0.2042
0.201638
0.202493
0.181656
0.163327
0.152128
0.0196216
0.0168738
0.0175097
0.0179088
0.0131291
0.0126025
0.0496042
0.037549
0.0438519
0.0351688
0.0461007
0.023955
0.024742
-0.063782
0.0549714
-0.23235
-0.28505
-0.372292
0.631935
0.682151
0.548512
0.463774
0.48457
0.579783
0.609515
0.384512
0.470899
0.453231
0.691593
0.712616
0.214036
0.223356
0.225837
0.218203
0.219712
0.064547
0.113096
0.0566208
0.0683226
-0.0670155
-0.148761
0.574686
0.45586
0.527788
0.43982
0.314779
0.33287
0.275123
0.304736
0.308726
0.148688
0.221496
0.25518
0.228613
0.257212
0.272998
0.242665
0.263792
0.234608
0.206671
0.203795
0.15319
0.158492
0.137769
0.13216
0.21639
0.202305
0.205237
0.201279
0.222276
0.250438
0.240648
0.252728
0.26534
0.206049
0.174828
0.179001
0.203408
0.171401
0.181615
0.193685
0.238928
0.182674
-0.0498791
-0.585677
-0.502492
-0.477892
-0.584262
-0.438167
-0.178952
-1.02303
-0.870594
-1.33786
-0.26784
0.876185
0.46784
0.505491
0.430066
0.372245
0.369795
0.476423
0.475023
0.335191
0.349726
0.357309
0.267091
0.307083
0.333322
0.3408
0.0229973
0.0595908
0.013578
0.0606505
-0.0102863
0.00566398
0.13883
0.0930088
0.0301837
0.0257873
0.187227
0.0919922
0.136366
0.174689
0.115959
0.0956447
0.22922
0.306029
0.29264
0.257698
0.189421
0.189815
0.224331
0.257796
0.274315
0.305234
0.216414
0.220649
0.220278
0.220257
0.218105
0.220703
0.222021
0.223312
0.224601
0.226326
0.226448
0.0280391
0.039551
0.0120749
0.0182002
0.0393824
0.0198438
0.0735855
0.0593364
0.0524333
0.0528556
0.0369199
0.00922015
0.0227662
0.0402054
0.164474
0.192159
0.193891
0.144378
0.24913
0.346623
0.39111
0.345229
0.217981
0.245914
0.280779
0.0868512
0.0961094
0.0842789
0.107697
0.0972494
0.0429928
0.0398003
0.0385632
0.0502346
0.0472094
0.0352493
0.0316053
0.0309003
0.0320993
0.035285
0.0328651
0.20689
0.200154
0.195245
0.191309
0.189912
0.206284
0.21156
0.209922
0.214139
0.215874
0.209752
0.214287
0.215243
0.0408753
0.0256057
0.0287594
0.0301906
0.0230622
0.0298275
0.0284018
0.295406
0.168205
0.256501
0.109445
-0.128325
-0.0328747
0.50948
0.619957
0.612472
0.669268
0.598181
0.575183
0.619974
0.714672
0.438251
0.560601
0.510585
0.663921
0.661775
0.703273
0.564571
0.107696
-0.47533
-0.113198
0.0563951
-0.399468
9.28742e-05
0.0236426
-0.00365624
-0.00134432
-0.0661169
0.208291
0.261098
0.296557
0.4414
0.235026
0.343584
0.0555316
0.141131
0.340184
0.331317
0.359312
0.310608
0.331457
0.34589
0.315463
0.339735
0.275633
0.269776
0.278585
0.294064
0.286026
-1.15506
-1.17456
-1.81494
-1.28834
-0.996305
-0.613536
-0.663853
0.163463
0.0448144
0.358055
0.311938
0.279589
0.233564
0.167505
0.256409
0.0774366
0.171289
0.155607
0.149611
0.0751064
0.0123245
0.273074
0.270028
0.296062
0.317016
0.300213
0.323827
0.21619
0.213465
0.217705
0.212028
0.2024
0.20437
0.113291
0.0866162
0.132201
0.118844
0.0755686
0.0580712
0.0437853
0.0398351
0.0320755
0.0296729
0.04414
0.0452801
0.325005
0.31669
0.153714
0.259889
0.0124907
-0.0645728
-0.114108
0.0946071
0.142495
0.189255
0.478073
0.579807
0.519879
0.5414
0.447701
0.472149
0.514173
0.312122
0.427075
0.399788
0.492165
-0.99544
-1.11276
-1.04189
0.191756
0.0656022
-0.52434
-0.820789
-0.790462
-0.431134
0.111989
0.092465
0.137394
0.156255
0.171052
-0.817531
-0.554295
-0.954353
-0.76622
-0.0734712
-0.377676
-0.179945
-0.564757
-0.359617
)
;

boundaryField
{
    wall-4
    {
        type            zeroGradient;
    }
    velocity-inlet-5
    {
        type            zeroGradient;
    }
    velocity-inlet-6
    {
        type            zeroGradient;
    }
    pressure-outlet-7
    {
        type            fixedValue;
        value           uniform 0;
    }
    wall-8
    {
        type            zeroGradient;
    }
    frontAndBackPlanes
    {
        type            empty;
    }
}


// ************************************************************************* //
