/*--------------------------------*- C++ -*----------------------------------*\
| =========                 |                                                 |
| \\      /  F ield         | OpenFOAM: The Open Source CFD Toolbox           |
|  \\    /   O peration     | Version:  4.0                                   |
|   \\  /    A nd           | Web:      www.OpenFOAM.org                      |
|    \\/     M anipulation  |                                                 |
\*---------------------------------------------------------------------------*/
FoamFile
{
    version     2.0;
    format      ascii;
    class       surfaceScalarField;
    location    "5";
    object      phi;
}
// * * * * * * * * * * * * * * * * * * * * * * * * * * * * * * * * * * * * * //

dimensions      [0 3 -1 0 0 0 0];

internalField   nonuniform List<scalar> 
1300
(
3.75095
5.62643
-6.43995
3.75095
-6.33875
5.62643
-5.51588
5.51588
-1.65977
1.65977
1.87783
1.87313
-5.50928
5.50928
-5.4708
5.4708
-2.99574
2.99574
-5.24465
5.24465
-5.06446
5.06446
4.75573
-4.75573
-5.21547
5.21547
-2.15053
2.15053
-6.12402
6.12402
3.12899
-3.12899
-5.49121
5.49121
-0.561056
0.561056
-0.565552
4.31651
3.1854
3.1854
-2.80797
2.80797
-4.84872
4.84872
6.21756
-6.21756
9.72634
-9.72634
-3.28639
-3.31918
1.37491
-8.08963
-4.96384
-4.96384
-8.4407
8.4407
-2.81427
2.81216
3.14098
-3.14098
-1.08196
1.08196
-5.09873
-0.417147
-5.09873
5.93069
-0.41481
5.93069
-1.8049
0.145129
-1.8049
4.26162
-4.26162
1.51836
0.14141
1.51836
3.09938
-3.09938
-1.87862
3.75644
1.87234
-1.86456
6.18107
-1.88639
3.75952
-4.93419
4.93419
-5.60991
0.100634
-5.60991
5.4926
0.0166761
5.4926
-5.37549
5.37549
-5.47668
0.00588045
-5.47668
5.45429
0.0165021
5.45429
3.18482
-3.18482
-3.03714
0.0413949
-3.03714
2.95326
0.0424808
2.95326
0.354932
5.2715
-5.98136
8.79352
-5.2715
0.0268432
5.20808
0.0365778
5.20808
-5.10436
0.0399008
-5.10436
5.01464
0.0498147
5.01464
4.79971
-0.0439805
4.79971
-4.87978
0.124053
-4.87978
-3.28704
-3.29756
-5.28559
0.0701189
-5.28559
-2.14286
-0.00767415
-2.14286
2.11958
0.0309488
2.11958
-3.88091
3.88091
-6.3296
0.205581
-6.3296
3.06181
0.0671777
3.06181
1.86707
1.88388
5.61802
-5.61802
2.48904
-5.46258
-0.0286269
-5.46258
-5.50941
-4.21693
5.50941
-0.0182009
-1.04788
0.486822
-1.04788
3.1096
0.0758005
3.1096
2.93536
0.0179056
-2.93536
0.127389
3.59823
-3.59823
2.11061
0.697357
2.11061
-5.5835
5.5835
4.94779
0.0668573
-4.94779
0.0990649
6.15777
0.0597989
6.15777
-6.20052
-0.0170428
-6.20052
3.32459
-6.64376
-3.30362
5.10404
0.11143
-5.10404
0.140204
3.15523
-0.0142471
3.15523
-3.09724
3.09724
-3.13107
-0.00991322
-3.13107
-1.40502
0.323059
-1.40502
1.069
0.0129587
1.069
-4.77182
-0.326913
-4.77182
-6.21555
-0.114055
6.21555
-0.284861
2.63302
-2.63302
-1.95076
0.145861
-1.95076
-4.4644
-0.307414
4.4644
-0.202784
-4.11211
-0.149512
-4.11211
-3.10908
-0.0219952
3.10908
-0.00970061
3.08303
0.0265661
-3.08303
-0.0163411
-1.8741
3.75799
-1.87685
3.74919
-4.65113
-0.283069
-4.65113
5.09915
-0.16496
5.09915
5.8742
0.249828
-5.8742
0.264282
5.46187
0.0307282
5.46187
-5.3539
-0.0215928
-5.3539
5.40146
-0.025966
5.40146
5.44978
0.0120946
-5.44978
-0.0268964
5.45847
-0.00417578
5.45847
3.23119
-0.0463664
3.23119
-3.17359
-0.0112302
-3.17359
3.08164
-3.08164
3.08092
0.000723089
-3.08092
0.0437779
-11.1305
11.1134
-0.0333498
-11.0971
5.17473
5.17473
3.93473
0.864975
3.93473
-5.05557
0.175785
-5.05557
3.28256
-6.58619
3.30495
-6.59198
3.29444
-11.3841
3.31961
-6.61717
5.40475
-5.40475
5.35911
0.0456389
-5.35911
0.0735256
-2.15983
0.016972
-2.15983
-3.68579
-0.19512
-3.68579
4.09109
-0.210176
4.09109
-3.07911
3.07911
-3.0662
-0.0129155
3.0662
-0.00438817
5.46696
-0.00849395
-5.46696
0.00438396
1.32702
0.191336
-1.32702
0.279143
3.75833
-0.160103
3.75833
-3.42148
-0.176749
-3.42148
-2.12224
-0.0375943
2.12224
-0.011624
-5.82475
0.241255
-5.82475
-11.1907
0.0936128
-11.1542
-6.10691
-6.10691
2.3338
11.1273
-3.16457
-0.00902005
3.16457
-0.00934247
3.10597
-0.026862
-3.10597
0.00873218
-3.08631
0.00467127
3.08631
0.0109307
-1.94864
0.543623
-1.94864
-1.82317
1.82317
-1.36678
-0.456384
1.36678
-0.297784
2.94774
-0.314718
2.94774
2.05009
0.0694901
-2.05009
0.0993352
-3.99045
-0.121657
-3.99045
5.15132
-0.0521676
5.15132
-3.31283
-0.10865
3.31283
-0.0816361
-0.0327734
11.1462
-5.14195
0.0375947
5.14195
-11.206
11.2436
-2.80963
0.86099
2.80963
1.1251
5.31099
0.272508
-5.31099
0.255426
5.39245
0.00900819
-5.39245
-0.0123015
-3.46086
-0.224935
-3.46086
-4.31099
-0.340132
4.31099
-0.219906
-11.4634
-0.202895
11.6663
-11.4136
6.02765
0.130116
-6.02765
11.3737
-2.27224
-0.36078
2.27224
-0.449072
3.14077
-0.193029
3.14077
3.89519
-0.136863
-3.89519
-0.0952579
-5.26313
-0.090769
5.26313
-0.111809
-3.2689
-0.191955
3.2689
-0.128134
-4.2052
4.281
1.97587
-3.34622
-3.29755
-7.56315
1.81117
1.94682
4.30021
-7.03345
-4.35062
-6.89325
7.30062
-7.0452
-9.61796
9.57398
7.18821
-7.33773
-5.8029
5.79851
6.39313
-6.40283
1.85524
1.90121
10.5938
-10.4932
-10.2534
9.97029
10.2166
-10.2107
10.5913
-10.6129
-12.177
12.186
-5.68208
5.72348
-6.6074
6.59617
-6.71141
6.62977
-3.23221
-3.35978
9.01302
-8.9429
11.6503
-11.6789
-11.1769
11.3825
3.30854
0.972457
3.33511
-1.91185
3.76708
-1.84767
3.82354
3.27718
-6.50939
3.309
-6.60655
6.00933
5.64094
-5.99113
-1.57201
-5.85139
5.83714
-5.78911
5.80004
9.40086
-9.81801
-1.87889
3.7801
-1.87029
3.81711
-3.40764
-2.39526
3.34046
0.959746
5.54627
3.46675
-5.6577
-1.23555
-7.53675
7.39988
-7.81894
7.64219
-0.47079
5.7716
-5.30081
4.37793
-1.45291
7.22451
5.84772
6.0235
5.86691
-5.5944
1.17829
-6.4791
-6.38004
-2.66308
2.80894
2.69166
-2.55025
5.65335
1.53486
5.45057
-5.41731
-1.92042
-5.53897
3.85282
1.94569
3.83991
4.07108
2.32205
4.04908
3.05881
-3.05553
-0.00328081
-3.10617
6.16498
0.724572
-5.50143
-4.54168
6.95417
3.63966
6.97085
-7.24241
-3.25079
-6.97812
-6.02702
-4.22634
-6.36715
6.54308
3.42721
6.37812
-7.84633
7.73452
6.74713
3.46945
6.76364
-6.81219
-3.39851
-6.83909
10.2731
-2.6655
-7.60764
-6.819
-5.35795
6.84497
3.74632
7.45015
4.73581
7.43785
3.50258
6.77056
-7.2489
1.89095
-3.82044
-1.86164
-3.77667
3.67507
2.0484
3.71755
-4.165
-2.4424
-4.17402
-4.1978
-2.51361
4.24417
2.35201
-4.2417
-3.57724
4.35035
2.27942
3.05791
-7.40853
3.55926
-6.91904
-6.25785
-2.68504
-6.18433
3.93688
2.66071
-6.59758
-2.57251
10.7511
-5.11014
9.17906
-7.2644
-4.4145
-7.26001
-8.49768
-2.6792
-8.61173
-5.57355
5.34861
-5.6025
5.39233
10.3615
-5.60304
-4.75845
-3.84573
-2.5571
3.86207
-0.526958
-3.81824
3.81496
-0.051156
3.77238
4.74484
4.21788
-3.84869
-1.94042
-3.83996
3.83308
1.96695
3.83776
8.08586
1.315
7.67105
-6.38903
-3.42898
-6.71594
7.30428
-6.98122
2.95959
-2.99719
5.04786
2.59433
-4.88776
-2.64899
5.90683
-2.85978
-3.04705
-12.0337
11.0148
1.01887
-4.80918
-0.431249
0.129808
-5.6683
-3.94966
5.54425
0.479255
11.4941
7.54441
-5.50924
5.7505
6.15708
6.22394
-0.1561
5.35366
-4.49267
3.97638
-2.2091
-1.76728
5.06663
-5.37404
-1.64932
-4.96662
3.3173
0.076527
2.18892
-1.7021
-2.14474
-0.51834
-2.0454
1.64366
1.048
1.835
0.988787
1.82015
-2.88273
0.584972
2.29776
-1.89395
-1.96528
-3.36533
-1.21766
4.58299
5.40075
1.99913
-5.3055
-0.233469
2.8108
-2.77985
-0.590616
-2.77472
2.08662
-2.67724
-3.29167
-1.86076
5.15243
-3.3281
-0.511853
3.35496
0.484941
-3.76263
-2.08876
3.77254
0.276541
-3.04056
6.09875
-3.05818
-4.98098
2.60098
3.564
4.54667
-4.78869
2.43231
2.35638
-1.22469
6.00498
0.965869
6.03571
-9.17379
5.923
7.6993
3.68315
-7.94913
0.971002
-8.20279
9.55759
-8.39175
-1.16585
4.94881
4.60878
5.07824
5.28324
-3.80254
8.88078
-1.18808
-7.20366
9.39087
-5.70772
5.65171
-11.3594
-10.935
3.73129
-6.80351
8.4677
-1.66419
-2.41356
-5.43277
9.21707
-0.893174
-8.3239
5.48494
-5.27234
-5.31371
10.586
-7.93784
8.71222
-2.56012
-6.1521
-6.61669
-3.99619
6.70746
1.02706
-9.79493
11.6859
-3.02437
5.86464
0.898994
5.86047
3.81611
-5.92518
2.10907
4.12172
-6.68184
2.51148
-8.43666
-4.73373
9.43566
-4.70193
-7.41877
-6.57903
-0.83974
2.04591
9.63997
-6.78172
5.27987
1.50185
3.32681
0.510942
-3.32754
-0.44913
0.331552
4.37334
-4.70489
4.04911
4.06701
3.32482
1.04851
3.82937
2.00777
-3.82003
-0.353995
-3.95067
1.43707
-1.59867
-3.4086
4.84567
-3.81555
0.406943
-2.62031
-3.47288
6.09319
-4.48195
3.04925
3.04949
5.01621
-4.73521
1.26233
-2.35166
-2.38355
2.55322
-4.15189
1.86054
2.98513
4.13995
0.562715
4.72718
4.70848
-7.38788
0.468846
8.17523
-6.93968
1.60699
5.83086
-6.88687
0.307832
-5.8765
1.15479
-6.26492
-5.4428
6.08104
-8.76024
-5.27839
7.75565
-0.0845997
-7.47078
-1.14095
-3.85364
-1.71991
-4.0456
-1.66044
-3.94206
-5.46298
-1.21143
-4.25155
4.13719
-4.21
-2.15715
4.42991
0.962419
-4.85362
4.49284
-4.75719
4.56416
0.141308
3.67365
4.35919
1.80209
-2.44896
4.25105
-6.59697
7.91197
-8.4811
1.88413
2.62106
-6.05004
-5.86004
3.87557
3.42871
3.88853
6.7918
-9.77495
2.98315
-7.27489
7.95916
-0.684275
-11.1612
3.8863
-4.36939
2.73956
0.220035
2.75653
0.706057
2.34799
-3.05405
-2.29113
-2.30275
-2.19989
-3.17949
5.37939
1.06167
-3.18305
2.12137
-3.23683
4.2985
-0.151431
-3.03161
5.18213
-2.83414
5.40216
-3.38826
2.0139
3.07269
5.23151
-2.15882
4.14582
-1.55149
1.68266
-3.84148
-1.49683
-2.93698
4.98538
-3.15622
3.56316
-0.280492
3.84365
-3.90904
1.04926
-0.584217
3.48279
3.61018
4.07324
-3.02472
2.81529
-4.36678
-1.02619
-3.80406
-0.818926
-4.51373
-3.33157
7.8453
4.41794
-8.93167
-5.79779
8.46602
-2.66823
6.88174
-5.79965
-1.08209
-3.61408
-3.36714
3.07046
2.2832
9.16494
-0.320904
-5.47874
-4.81357
-3.68847
1.9222
2.05418
-2.62666
3.64553
2.49685
-0.30793
0.586398
1.2486
1.97051
-1.38411
0.174356
1.79615
-1.52774
2.06673
0.744065
-2.13622
0.09082
-1.25058
3.3372
1.04718
-2.09518
0.711069
0.838547
-3.04765
4.34048
-2.02517
-2.31531
5.17903
1.23152
-3.25669
3.7351
-3.65857
1.97784
-3.19549
-1.27885
-4.93742
-3.40256
-2.36268
4.48406
-3.01671
5.01583
1.19238
-4.78237
5.97475
-3.36365
1.50288
-2.91776
3.66183
-0.934856
-1.9829
2.56977
2.58266
-2.73578
-0.0389384
-0.166005
2.12445
-2.29045
-0.552793
-2.44674
-4.50544
4.78198
-2.06766
4.49996
2.18339
-1.89515
6.39512
1.80406
-3.69922
-3.17692
-3.68877
-1.34284
3.20383
-0.91357
-5.92552
-7.06567
5.91343
0.122282
-9.00456
10.1479
-1.14332
-5.3649
-0.558102
5.50691
-7.38291
0.701072
-4.87143
5.27645
6.24232
6.3646
-8.25287
-0.0710267
-4.82566
1.1995
-6.02516
5.80828
-2.80854
6.53983
-7.03466
4.87751
-6.07224
5.37399
-0.651172
5.49189
-3.38282
2.11576
-6.11194
-5.08488
6.98077
-3.51132
7.87976
-4.05036
11.9301
-7.07473
6.9069
5.02322
-1.35055
-5.90947
-6.84941
5.49886
0.0574972
5.91796
4.80967
-2.80191
4.45568
2.13861
-4.49026
-2.01328
-6.27775
1.78748
-3.22825
-1.85377
3.64125
3.16244
3.67338
1.2577
-3.22425
6.48565
-7.32539
-1.78372
-3.65908
6.73935
-1.24049
3.94008
-7.59916
-2.32485
5.3966
-0.926921
-4.46968
0.206438
-5.48483
2.73915
-8.22397
6.02109
-7.16204
1.69799
-6.06738
-3.15563
-3.6047
-1.49425
-3.26293
-4.80149
3.30724
-0.915187
3.57765
-5.72209
4.79516
-2.23708
5.54431
-3.51111
-0.534489
3.63924
0.924917
6.46923
-2.2104
-3.64964
-0.718852
3.50661
-2.78776
1.20335
-5.54197
-2.03536
2.36832
2.81071
-5.68562
-0.364414
-4.01406
-2.47827
5.90699
5.98775
10.4057
0.630739
6.65775
-0.75076
7.28849
3.13777
2.83998
-3.14872
6.13187
4.69659
6.58072
-0.83346
2.84736
1.92307
1.91539
0.864456
2.22189
1.38829
3.27115
0.217106
-2.08565
5.13986
-8.82833
-0.338883
-7.96335
1.61063
6.48608
-4.87545
2.95106
-0.89688
0.163298
-1.01232
-1.97693
2.98925
-2.7796
-2.28486
-0.488706
-1.5784
2.28947
1.7588
-1.80077
-0.978833
0.430783
-3.83334
2.76471
-2.80365
-0.220989
5.75376
-2.54245
0.252
-1.03957
-2.19474
-2.71308
2.62226
6.11185
0.283273
3.05366
5.06526
2.9765
0.174591
4.35669
-6.02087
-4.07998
-6.0919
-0.283614
5.22329
1.9815
7.65847
7.00472
5.76423
-1.83492
-9.16031
7.33448
-1.20261
6.6502
-2.18052
-6.04345
6.3946
1.51738
-6.31
-0.852042
-6.89549
-8.0981
-0.475597
5.27076
-5.99363
5.45914
3.73924
0.512315
-2.67162
-0.933078
3.12801
-0.288026
7.00046
-1.81538
-8.40686
10.2222
-4.6707
4.33181
-0.0857269
3.73126
2.90352
2.00664
-6.40022
-11.2757
-1.81224
-1.23541
-4.12755
0.455437
-2.21424
6.32915
-1.99733
5.24706
8.22491
8.3882
-3.99514
-4.93653
6.66337
-1.41631
6.97189
)
;

boundaryField
{
    wall-4
    {
        type            calculated;
        value           uniform 0;
    }
    velocity-inlet-5
    {
        type            calculated;
        value           uniform -3.75095;
    }
    velocity-inlet-6
    {
        type            calculated;
        value           uniform -5.62643;
    }
    pressure-outlet-7
    {
        type            calculated;
        value           nonuniform List<scalar> 8(6.43995 6.33875 6.60557 6.71472 6.58459 6.62821 6.58751 6.61405);
    }
    wall-8
    {
        type            calculated;
        value           uniform 0;
    }
    frontAndBackPlanes
    {
        type            empty;
        value           nonuniform 0();
    }
}


// ************************************************************************* //
