/*--------------------------------*- C++ -*----------------------------------*\
| =========                 |                                                 |
| \\      /  F ield         | OpenFOAM: The Open Source CFD Toolbox           |
|  \\    /   O peration     | Version:  4.0                                   |
|   \\  /    A nd           | Web:      www.OpenFOAM.org                      |
|    \\/     M anipulation  |                                                 |
\*---------------------------------------------------------------------------*/
FoamFile
{
    version     2.0;
    format      ascii;
    class       volVectorField;
    location    "5";
    object      U;
}
// * * * * * * * * * * * * * * * * * * * * * * * * * * * * * * * * * * * * * //

dimensions      [0 1 -1 0 0 0 0];

internalField   nonuniform List<vector> 
918
(
(0.987227 -0.00632368 0)
(0.00450468 2.96648 0)
(-0.00662515 1.71151 0)
(0.96578 0.0105584 0)
(-0.00591828 1.69015 -1.11915e-21)
(-0.00692661 2.9487 -9.68604e-19)
(1.01262 1.44587 2.42204e-19)
(0.558911 0.293976 -3.62754e-21)
(0.999462 -0.00123566 0)
(0.0165862 1.65057 0)
(0.00986912 1.6539 0)
(0.906017 0.0106954 0)
(0.0120777 2.92868 0)
(-0.00270966 2.79422 0)
(-0.0330243 3.22667 4.9167e-19)
(0.00659373 1.65613 -9.14306e-21)
(0.693246 0.136802 2.32662e-19)
(0.237226 1.93487 2.38592e-19)
(0.951248 0.0216859 0)
(-0.000466612 1.66633 0)
(0.16392 0.269031 -2.59005e-19)
(0.993572 -0.00709413 0)
(0.995616 -0.0119182 0)
(0.967704 -0.0102641 0)
(0.844706 0.00361478 0)
(0.0193109 2.6287 0)
(-0.0146721 2.90998 3.31977e-19)
(-0.00768854 1.72294 0)
(-0.000610884 1.76195 0)
(0.00130313 1.73127 0)
(0.0103729 1.7873 0)
(-0.000874634 1.70058 8.68847e-22)
(-0.00311571 1.63649 0)
(-0.0207314 2.98745 -3.4491e-23)
(-0.0171264 3.00559 7.70037e-19)
(0.00212924 3.00047 0)
(0.950813 0.00419597 0)
(0.21713 0.393069 -8.29131e-20)
(0.941913 1.48913 -2.35037e-19)
(1.08228 1.20131 2.88294e-19)
(0.827701 1.71071 -5.64076e-20)
(0.903816 1.68721 3.49825e-19)
(0.598849 0.341575 3.53717e-21)
(0.581916 0.28002 0)
(1.22121 0.61982 0)
(0.581747 0.350758 1.70365e-20)
(0.528657 0.308636 -1.7689e-20)
(0.939728 0.00246237 0)
(1.00004 0.000270799 0)
(1.00012 0.000481238 0)
(0.991884 -0.0164776 0)
(1.00023 -0.00157341 0)
(1.00293 0.000154135 0)
(0.0284635 1.60651 -2.14207e-19)
(0.0185181 1.7441 0)
(0.0739638 1.6918 0)
(-0.000477018 1.73191 0)
(0.00010335 1.64929 0)
(-0.000205017 1.64747 0)
(0.000345997 1.71435 0)
(-0.00278787 1.65707 0)
(0.00432457 1.71483 0)
(0.00916208 1.64585 0)
(0.96024 -0.00205541 0)
(0.944171 0.00900759 0)
(0.913735 0.0127529 0)
(0.930611 0.0156266 0)
(0.895253 2.57738e-05 0)
(0.0157174 3.00037 3.50485e-19)
(0.0124121 3.0073 0)
(0.00693016 3.00352 0)
(0.0143517 2.99664 3.91938e-24)
(0.00892909 2.95784 -5.29462e-19)
(0.0149369 2.98096 0)
(0.0110415 2.90394 0)
(0.025955 2.92718 7.46938e-25)
(0.00670287 2.82424 0)
(0.0280165 2.91172 0)
(-0.0218918 2.74869 0)
(0.277004 3.59458 0)
(-0.149105 3.67238 0)
(0.128339 3.31457 -4.53547e-19)
(-0.00782189 3.03478 0)
(0.00194195 1.75551 0)
(0.00362109 1.71104 9.01752e-21)
(0.0114923 1.65524 -1.34272e-20)
(0.725218 0.169251 -8.02502e-20)
(0.695393 0.103093 -8.0375e-20)
(0.72093 0.208838 -2.4102e-19)
(0.668809 0.184006 -1.60826e-19)
(0.198315 1.34639 0)
(0.338683 2.01494 -2.60499e-19)
(0.486655 1.97958 4.38163e-19)
(0.972469 0.0116229 0)
(0.92615 0.0145147 0)
(1.00226 -0.000262799 0)
(1.00108 0.0162332 0)
(0.99433 0.0211 -4.99063e-19)
(0.981898 0.0370208 3.821e-19)
(-0.00309621 1.70856 0)
(-0.00475103 1.65612 0)
(0.00341877 1.74237 0)
(-0.00115954 1.72231 0)
(0.00641002 1.66855 0)
(0.281091 0.395738 7.76887e-20)
(0.386335 0.323824 0)
(0.987797 -0.00471026 0)
(0.941569 0.00703593 0)
(0.916389 -0.00323498 0)
(0.903518 0.0125069 0)
(0.891693 -0.0101439 0)
(1.07925 0.00109171 0)
(0.849746 0.0593866 0)
(0.762806 0.0242769 3.19137e-19)
(-0.039173 2.87431 2.04435e-19)
(0.0392319 2.90813 0)
(0.057071 2.8829 0)
(-0.0182774 2.70043 0)
(-0.0130303 2.98499 3.11559e-19)
(-0.0167303 2.89588 0)
(-0.0156834 2.98899 -9.73867e-19)
(-0.0122446 2.92535 3.35734e-19)
(0.000709738 1.77333 0)
(0.000815488 1.7671 0)
(0.000988484 1.71678 -1.57389e-22)
(-0.00751884 1.70299 0)
(-0.00832541 1.64564 0)
(0.983846 0.00469407 0)
(0.952096 0.00575401 0)
(0.935398 -0.00255182 0)
(0.981634 0.0105462 0)
(0.949658 0.00258864 0)
(0.420373 0.743125 9.94278e-20)
(0.271716 0.753258 0)
(0.493808 0.652513 -9.08874e-21)
(0.208308 0.273718 0)
(1.03605 1.25638 -7.86222e-20)
(1.13936 0.97918 1.77393e-19)
(0.510069 1.9934 0)
(0.678726 1.88746 0)
(0.726472 1.87709 0)
(0.530335 0.992056 -1.42635e-19)
(0.646953 0.313539 0)
(0.624459 0.237679 4.53797e-20)
(1.10816 1.04628 0)
(1.16125 0.861108 0)
(1.17604 0.789755 -1.57004e-19)
(1.20298 0.675139 0)
(1.25941 0.435645 2.79317e-20)
(0.976126 -0.00107374 0)
(0.971856 -0.00128576 0)
(0.940694 -0.00581765 0)
(0.966017 0.0067045 0)
(0.964732 0.00781838 0)
(0.934566 0.00820202 0)
(0.999357 0.000971152 0)
(0.999757 0.0013829 0)
(0.999557 0.000627964 0)
(0.0258861 1.62381 1.14984e-19)
(0.0535935 1.53952 0)
(0.00221455 1.66652 1.90873e-19)
(-0.00182983 1.62678 -1.62271e-19)
(0.172301 1.91721 -1.95131e-19)
(0.0571703 1.7867 0)
(0.110857 1.79244 0)
(0.00346093 1.73272 0)
(0.00887306 1.64115 0)
(-0.00460355 1.69748 -5.46635e-22)
(-0.00137094 1.65046 0)
(0.00086925 1.70314 -2.59414e-20)
(-0.00411266 1.65577 5.01925e-20)
(-0.00747122 1.71684 0)
(-0.0165421 1.71283 0)
(-0.0126315 1.64023 0)
(0.00357782 1.70943 0)
(-0.000622676 1.65051 0)
(1.0067 0.00634303 0)
(0.97409 0.0081386 0)
(0.997522 0.00618009 0)
(0.957439 0.00667837 0)
(0.928311 -0.00322841 0)
(0.967523 0.000197462 0)
(0.966096 0.007297 0)
(0.930085 -0.00835453 0)
(0.00277494 3.06717 -3.01843e-21)
(0.0147379 3.05737 0)
(0.0151161 2.9691 0)
(0.00895544 2.87736 0)
(0.858169 3.97992 0)
(1.16813 3.15511 4.63886e-19)
(0.0784631 3.13752 0)
(-0.0191965 2.9282 0)
(-0.00245737 1.75599 0)
(-0.00555813 1.75678 0)
(-0.00210742 1.75592 0)
(0.00652674 1.78076 9.47829e-22)
(-0.00108929 1.75987 0)
(0.00848432 1.76392 0)
(0.00497892 1.66469 1.26422e-21)
(-0.00475869 1.71648 1.66751e-20)
(-0.00310559 1.71503 1.36838e-20)
(-0.00137881 1.65993 0)
(0.754742 0.130836 1.1997e-19)
(0.720054 0.068688 -1.16117e-19)
(0.188565 1.42313 0)
(0.286091 1.30219 -9.08262e-20)
(0.12099 1.4397 -2.66303e-19)
(0.13967 1.38593 2.65895e-19)
(0.928465 -0.00519011 0)
(0.966636 -0.000378064 0)
(0.959473 -0.000663178 0)
(0.919863 0.000414804 0)
(-0.0037059 1.71175 0)
(-0.000957642 1.70835 0)
(-0.00103266 1.65539 0)
(0.527812 0.38025 1.57635e-19)
(0.458018 0.389874 -2.08671e-19)
(0.490819 0.311207 0)
(1.19003 0.0828567 1.44338e-22)
(1.1747 0.0358749 0)
(1.1076 0.0383879 0)
(1.0297 0.00893855 0)
(0.773729 0.0886952 0)
(0.790141 0.0678303 -5.16801e-19)
(0.733752 0.0255883 1.98851e-19)
(0.00477403 2.98455 2.41339e-19)
(-0.0384041 2.87202 2.02146e-20)
(0.00136332 3.05029 -6.46352e-21)
(0.0193178 3.0428 2.38188e-19)
(-0.0148257 2.99636 1.1106e-20)
(-0.012638 2.94952 -4.474e-23)
(-0.0177189 3.01198 -2.05299e-19)
(0.014292 3.02373 1.48513e-19)
(0.00680047 3.03754 -2.39943e-19)
(0.994973 0.0118928 0)
(0.993799 0.00172219 0)
(0.956615 0.00456382 0)
(0.97118 -0.00954893 0)
(0.976431 -0.00371904 0)
(0.935879 -0.015072 0)
(0.968627 0.00791801 0)
(0.967742 0.000562954 0)
(0.931242 0.00207628 0)
(0.455978 1.05126 1.88644e-19)
(0.522563 1.17399 0)
(0.443996 0.628751 3.12002e-20)
(0.57034 0.823305 1.83666e-19)
(0.554043 0.707718 -5.77199e-20)
(0.302503 0.401376 8.77885e-20)
(0.491637 1.22043 6.96964e-19)
(0.493554 1.12008 1.45174e-19)
(0.690351 0.247656 1.72688e-19)
(0.67526 0.273851 4.11423e-20)
(0.654749 0.210471 8.59599e-20)
(1.24943 0.496969 9.85476e-20)
(1.25504 0.288245 1.09695e-19)
(-0.0148188 1.67652 7.54582e-20)
(-0.00178041 1.61727 0)
(1.05492 0.0238997 0)
(1.02544 0.0163796 0)
(1.00333 0.00365049 0)
(0.0102165 3.07427 0)
(0.021747 2.94387 4.24335e-19)
(0.0172725 2.95717 0)
(0.00770792 2.85236 -4.22779e-19)
(0.00870644 3.08808 1.0021e-19)
(0.00625437 3.08437 0)
(0.610686 1.54412 -8.70189e-20)
(1.08294 2.23579 1.52985e-19)
(0.61406 1.71688 -5.05544e-19)
(0.019988 2.99337 -1.885e-19)
(0.0458982 3.03386 0)
(-0.032116 2.89125 0)
(-0.00423239 1.69642 -2.47982e-21)
(0.00512447 1.70814 -3.73872e-20)
(0.00350263 1.6555 -2.56209e-21)
(0.256056 1.36177 2.88384e-19)
(0.337571 1.26124 -1.99762e-19)
(0.040677 1.55709 1.81251e-19)
(0.0711271 1.49492 -2.19375e-19)
(0.0701648 1.4361 2.25521e-20)
(0.00683517 3.11521 -5.79637e-19)
(0.0124357 3.11579 6.54498e-19)
(-0.00697826 2.98146 2.80138e-19)
(-0.00693982 2.98163 -2.56707e-19)
(-0.0212263 2.88704 -2.85458e-19)
(0.00908051 3.09773 -7.44226e-19)
(0.0034444 3.10202 7.53712e-19)
(0.524323 1.10368 0)
(0.56241 0.97328 -5.67434e-19)
(0.513637 0.852942 2.56229e-19)
(0.417969 1.27806 3.87802e-19)
(0.441271 1.17904 -6.06693e-19)
(1.26325 0.173784 -1.47082e-20)
(1.25669 0.328286 0)
(1.24654 0.128344 4.36438e-20)
(0.00722743 1.69968 -6.59778e-22)
(0.0026015 1.6752 0)
(0.0163515 1.63313 0)
(0.308165 1.32278 -1.02672e-19)
(0.360075 1.31367 -2.49618e-19)
(0.388295 1.20233 4.52281e-19)
(1.00007 -0.0390063 0)
(1.00602 -0.0342705 9.18884e-20)
(0.00329015 1.77203 0)
(-0.00216779 1.77984 0)
(1.00745 0.0109057 2.14382e-21)
(0.999306 0.0172096 1.89459e-19)
(-0.00850178 1.78157 -1.27227e-21)
(-0.012129 1.78056 0)
(0.0714362 3.21887 1.06641e-19)
(0.406089 3.61026 0)
(1.09489 0.61633 1.11891e-20)
(1.01058 -0.00269802 -3.16881e-22)
(1.00814 0.0106169 0)
(1.00401 -0.00227003 -5.71398e-22)
(0.040612 1.83887 0)
(0.0984941 1.69126 0)
(0.00464919 1.79043 0)
(0.00443198 1.76529 3.78618e-20)
(0.00830129 1.76151 1.85902e-20)
(0.993822 0.0148015 9.8241e-22)
(1.04182 -0.00386361 0)
(1.0555 0.0304803 0)
(-0.0112792 1.75365 0)
(0.000292917 1.78109 0)
(-0.0156061 1.77933 0)
(0.234123 1.94272 -9.87855e-20)
(0.993676 -0.0322823 0)
(0.988459 -0.02027 0)
(1.01313 -0.00843553 1.16502e-19)
(1.00804 -0.0185051 -1.37363e-19)
(1.00768 -0.0038615 0)
(-0.0022356 1.73769 0)
(0.00811886 1.76018 0)
(0.000865461 1.754 0)
(-0.0119164 1.78364 0)
(-0.00206876 1.77838 0)
(-0.00805124 1.78232 0)
(1.01791 0.00139279 0)
(1.01263 0.00646122 -6.41266e-22)
(0.708404 1.43298 1.17658e-19)
(1.0052 -0.00326436 -1.14964e-19)
(1.01475 0.0116525 1.4109e-19)
(0.999307 0.00164169 0)
(1.0171 0.00788571 1.11764e-19)
(1.00456 0.0170926 -1.42796e-19)
(0.995303 0.0227387 0)
(-0.00426759 1.78545 0)
(-0.0122397 1.78301 6.46264e-21)
(-0.0103707 1.78341 -4.64181e-21)
(1.16241 0.240234 1.00723e-20)
(1.09826 0.0688984 0)
(0.0694845 3.05072 -3.33827e-19)
(0.080304 2.84047 -2.52817e-20)
(0.214895 3.17377 5.91126e-19)
(0.158368 3.22139 -1.80896e-20)
(0.182563 3.32389 0)
(0.0212257 3.13936 7.64827e-20)
(0.113984 3.15481 3.18009e-19)
(0.103705 3.19127 -1.56004e-19)
(0.0291067 3.12434 0)
(0.702659 0.357049 0)
(0.645213 0.400371 0)
(1.01011 0.650284 -4.83371e-20)
(1.07624 0.796493 7.64652e-20)
(1.1229 0.510971 0)
(1.17544 0.507286 0)
(1.01497 -0.00593161 -2.13958e-19)
(1.01753 -0.00673829 2.63367e-19)
(1.01402 0.00899408 0)
(1.01361 0.0146564 0)
(1.01182 0.00609647 0)
(1.02298 0.00300484 0)
(1.01069 -0.00195875 0)
(1.02914 0.00334454 0)
(1.02256 0.0180187 0)
(1.02378 0.0102181 0)
(0.0198311 1.8295 0)
(0.00915712 1.83717 0)
(0.0761717 1.86465 0)
(0.0759569 1.87247 0)
(0.104879 1.68733 0)
(0.103416 1.66139 -1.21864e-19)
(0.0798306 1.72109 0)
(0.0408247 1.7125 6.56389e-20)
(0.0331818 1.7564 -6.78575e-20)
(0.00793921 1.79086 0)
(0.00456094 1.78959 0)
(0.0050096 1.79352 0)
(0.00432989 1.80993 0)
(-0.000319941 1.7571 -2.2675e-20)
(0.00627382 1.76414 2.71973e-20)
(0.00108098 1.76966 3.44324e-20)
(0.00700021 1.7689 0)
(0.0117786 1.76954 -4.18721e-20)
(0.0162001 1.76792 -2.69761e-20)
(-0.00113738 1.7551 1.8387e-20)
(-0.00132515 1.75518 -3.53503e-20)
(-0.00177878 1.763 -4.23809e-20)
(1.00099 0.0230178 2.05325e-19)
(1.00132 0.0172044 -2.59004e-19)
(0.996274 0.0118741 -2.1436e-19)
(0.97069 0.00742871 2.72043e-19)
(1.0396 0.00550797 0)
(1.04789 -0.00862925 0)
(1.05679 0.0316443 0)
(1.04574 0.000926074 0)
(1.0629 0.0211751 0)
(1.0825 0.0785847 0)
(1.06164 0.0321878 0)
(1.07859 0.0346275 0)
(-0.00760364 1.7812 -7.38393e-22)
(-0.0162465 1.75957 0)
(-0.0121663 1.76826 0)
(0.00492344 1.7811 6.32649e-21)
(-0.00254982 1.78091 -3.57474e-22)
(0.00760741 1.72383 7.75841e-21)
(0.00138011 1.73265 -7.73579e-21)
(-0.00321665 1.76707 0)
(0.00119423 1.76275 0)
(0.0037904 1.76148 0)
(-0.00265645 1.78271 0)
(0.00374655 1.77729 0)
(0.37777 1.90719 1.55413e-19)
(0.387747 1.93013 8.09743e-20)
(0.307978 1.54291 -7.12164e-20)
(0.129517 1.57564 1.84209e-19)
(0.267747 1.64563 4.71179e-20)
(1.00204 0.0187861 0)
(0.989832 -0.00559398 0)
(0.990532 -0.000264285 0)
(1.03394 -0.008891 0)
(1.0166 -0.0209286 0)
(1.01687 -0.0221457 0)
(0.999568 -0.00826655 0)
(1.01967 0.0166164 0)
(1.01139 0.0078852 2.00502e-19)
(1.0147 0.0100379 -2.572e-19)
(1.01207 -4.62697e-05 -2.00294e-19)
(1.01387 -0.00631864 2.53257e-19)
(0.707417 1.54147 0)
(0.645488 1.66142 1.20243e-19)
(0.789559 1.33262 6.03659e-20)
(0.871507 1.22309 -8.0183e-20)
(0.754181 2.17542 -3.56817e-19)
(0.839305 0.105904 1.21723e-19)
(1.10095 0.0859654 0)
(1.13817 0.168648 -6.01982e-21)
(1.13072 0.130527 -1.04452e-22)
(0.962822 0.104439 0)
(0.247351 2.91755 2.69016e-20)
(0.173574 2.83716 -5.00541e-19)
(0.0289645 2.33902 3.15301e-19)
(0.099055 0.215743 -1.21445e-19)
(0.337489 3.5272 -2.12112e-19)
(0.227772 3.38897 0)
(0.252456 3.48484 2.76034e-19)
(0.357012 3.11013 -3.27272e-19)
(0.492134 3.325 0)
(0.0139977 3.11491 1.63414e-20)
(0.0229054 3.12715 -1.99635e-19)
(0.0240517 3.12398 2.92786e-19)
(0.0467317 3.1385 0)
(0.0431564 3.15098 0)
(0.788677 2.47178 0)
(0.494294 0.617996 -1.47636e-21)
(0.986518 1.01924 -3.90799e-20)
(0.896876 1.07943 0)
(0.687912 0.990105 7.2474e-22)
(0.939533 0.834722 6.19295e-21)
(0.427527 0.599837 -2.67291e-19)
(0.718064 0.343779 -1.02787e-20)
(0.721057 0.309719 8.76296e-20)
(0.620672 0.444715 7.27567e-21)
(0.583346 0.423884 -3.08041e-19)
(0.701643 0.372374 0)
(0.703024 0.419289 1.38608e-19)
(0.702125 0.399694 0)
(0.66467 0.391969 0)
(0.672303 0.365717 0)
(0.755014 0.569 4.56092e-20)
(1.15773 0.253534 -1.59357e-20)
(1.1507 0.403698 0)
(1.18272 0.348092 0)
(0.791946 0.224974 1.35953e-19)
(0.79865 0.481787 -7.05966e-20)
(0.712443 0.455652 1.12481e-19)
(0.863681 0.406495 -1.16768e-19)
(1.01447 0.000883692 1.38032e-19)
(1.01721 -0.00792034 -1.38648e-19)
(1.01672 -0.00487328 0)
(1.01622 0.00239833 0)
(1.02009 0.00715274 -1.30659e-19)
(1.02068 -0.00651276 1.2867e-19)
(1.01017 0.000910384 0)
(1.00579 0.00202899 0)
(1.02486 -0.00418091 0)
(1.01912 -0.00809736 0)
(1.01177 0.00317253 0)
(1.01823 0.00642508 0)
(0.00811558 1.83528 0)
(0.0121991 1.83083 0)
(0.139777 1.84389 -1.15057e-20)
(0.222439 1.9109 4.93654e-20)
(0.134136 1.92169 1.07905e-19)
(0.141013 1.93645 -1.7433e-19)
(0.179018 1.86444 0)
(0.147343 1.75829 -4.60218e-20)
(0.125358 1.77682 0)
(0.261877 1.67422 -6.80127e-20)
(0.183944 1.61324 2.20996e-19)
(0.188067 1.78789 4.02677e-20)
(0.22787 1.8592 1.35697e-20)
(0.19324 1.85801 -1.08691e-20)
(0.276499 1.8077 -4.13945e-20)
(0.221086 1.75114 0)
(0.223391 1.75415 3.7611e-20)
(0.038057 1.76546 -1.97804e-20)
(0.0182923 1.74495 0)
(0.0307059 1.72355 7.61137e-20)
(0.0319973 1.73985 0)
(0.0148291 1.72009 -7.29696e-20)
(0.000781123 1.73157 0)
(0.00205286 1.76532 -1.76412e-20)
(0.00772594 1.7588 0)
(0.00702493 1.77095 0)
(0.00761904 1.76711 1.98705e-20)
(0.00656564 1.76582 -6.76183e-22)
(0.0314069 1.76695 8.07476e-20)
(0.0160087 1.76999 5.5024e-22)
(-0.00336905 1.75407 1.40071e-20)
(-0.00488832 1.75284 9.30078e-21)
(0.0031723 1.78931 0)
(-0.0056176 1.78353 0)
(0.0141346 1.75033 4.66358e-20)
(0.0196544 1.76275 3.64482e-20)
(0.0133805 1.75237 -4.92783e-20)
(0.0272731 1.76481 0)
(0.0230895 1.76299 -2.51914e-20)
(0.0125784 1.76431 1.18533e-20)
(0.00217462 1.75507 -3.66757e-21)
(-0.00333205 1.75349 -1.69813e-20)
(0.0109427 1.75802 -6.21287e-21)
(0.0122036 1.76503 2.69047e-20)
(1.01366 -0.00500463 -1.33716e-19)
(1.00672 0.0130128 1.36784e-19)
(1.01052 0.000186966 0)
(0.984381 0.0623838 1.95776e-19)
(0.966043 0.0249458 -2.21596e-19)
(0.938279 0.016226 2.53414e-19)
(0.977494 0.0684497 -2.58212e-20)
(1.02826 0.0113712 0)
(1.03915 -0.000873205 1.18701e-19)
(1.03255 0.00332505 -1.18091e-19)
(1.01241 0.0257495 -6.85956e-21)
(1.01787 0.0174096 6.10698e-20)
(0.996991 0.0431512 0)
(0.987383 0.0358186 -2.16172e-20)
(1.0105 0.0258427 0)
(1.00146 0.0212809 0)
(1.01218 0.00357424 0)
(1.01488 0.000251239 0)
(1.00439 0.0122531 4.49149e-20)
(1.00114 0.0121492 -9.83934e-20)
(0.976088 0.0128913 -4.78712e-20)
(0.979505 0.0105871 -5.25961e-20)
(0.991379 0.0558437 9.71631e-20)
(1.04384 0.0493948 0)
(1.03353 0.0917376 0)
(0.0219337 1.76935 -1.01118e-20)
(-0.00847451 1.75802 -9.95813e-22)
(0.00963174 1.75057 0)
(0.000833328 1.77997 1.02876e-20)
(-0.0129581 1.78175 1.64013e-21)
(-0.00953866 1.78339 -1.67272e-21)
(0.0120631 1.77041 2.36984e-20)
(-0.00269251 1.76002 -1.2885e-21)
(0.00272102 1.75834 6.71637e-21)
(0.00344582 1.77515 -1.18551e-20)
(0.00302146 1.76824 1.3961e-20)
(0.00170871 1.74543 4.35461e-22)
(0.0200624 1.73387 1.26546e-20)
(0.365087 1.81479 -5.95238e-20)
(0.28929 1.79963 4.96264e-20)
(0.637647 1.76791 -1.15569e-19)
(0.516486 1.88138 -7.78687e-20)
(0.556137 1.83544 0)
(0.344201 1.54459 7.50402e-20)
(0.366346 1.52969 1.05238e-19)
(0.180403 1.57163 1.69145e-20)
(0.177868 1.57054 -2.52097e-19)
(0.260485 1.56684 2.02821e-19)
(0.279452 1.57547 0)
(0.207238 1.57617 -1.57991e-19)
(0.102192 1.64011 3.14845e-19)
(0.111186 1.59894 -2.00219e-20)
(0.0625207 1.6043 -4.27578e-19)
(0.746025 1.44155 3.76055e-19)
(0.525552 1.4963 0)
(1.03366 -0.00509885 4.24994e-21)
(1.02252 0.0303335 -3.65522e-21)
(1.01626 0.0316485 -6.5877e-20)
(1.01262 0.020667 6.64929e-20)
(1.02413 0.00406058 0)
(0.42841 1.51379 0)
(0.30001 1.41423 0)
(0.506883 1.12371 0)
(0.282826 1.32041 0)
(0.748339 2.10871 1.0204e-19)
(0.8388 1.82794 0)
(0.555731 2.03541 3.12683e-21)
(0.531922 1.67225 0)
(0.654386 1.6955 -2.71262e-19)
(0.655053 1.77806 1.72688e-19)
(0.85305 0.145936 0)
(0.831488 0.166618 3.48845e-20)
(0.911941 0.112812 1.7876e-19)
(0.866824 0.0998898 -7.03197e-20)
(0.862396 0.0737307 -2.19672e-19)
(0.990241 0.206448 -1.26523e-19)
(0.922202 0.268783 -5.19062e-21)
(0.847775 0.25634 1.5684e-19)
(0.908007 0.211373 1.28925e-19)
(0.932663 0.140814 -2.28674e-19)
(0.91414 0.142722 2.88634e-20)
(0.86056 0.224472 -5.93081e-20)
(0.911013 0.1827 0)
(0.961475 0.144617 1.11832e-19)
(0.955044 0.152764 0)
(0.953653 0.198614 0)
(1.04626 0.087785 4.34985e-20)
(0.980011 0.14654 -5.84513e-21)
(0.990456 0.198852 -2.22681e-20)
(1.04083 0.195004 0)
(1.00989 0.0363572 1.03053e-19)
(1.00523 0.0452244 1.26255e-19)
(1.01017 0.0423481 -1.00938e-19)
(1.0114 0.0568712 -8.49374e-20)
(0.993652 0.0631903 -1.38168e-19)
(0.957133 0.073142 0)
(0.952292 0.0625521 0)
(0.928192 0.0574989 -9.06871e-20)
(0.908577 0.064431 3.74718e-20)
(1.00119 0.0790057 1.17359e-19)
(0.989403 0.0905715 -1.2774e-19)
(0.99965 0.0979067 1.12249e-19)
(0.99079 0.106747 0)
(1.00119 0.0828502 0)
(0.998777 0.0764829 -5.33539e-20)
(1.00465 0.0811966 -9.43359e-20)
(0.0042852 1.80469 7.8195e-20)
(0.129854 2.46368 -6.75407e-20)
(0.662064 2.77813 4.80418e-20)
(0.81866 3.18856 -5.35587e-20)
(0.845187 2.48823 4.33442e-19)
(0.899127 2.56962 -1.99125e-19)
(0.772283 1.92912 7.87867e-21)
(0.783038 2.96402 1.31142e-19)
(0.803818 2.88211 -1.36016e-19)
(0.871171 3.34632 -1.6219e-19)
(1.06525 2.96521 1.90747e-19)
(1.03912 2.8583 0)
(0.510014 0.526132 8.11629e-21)
(0.425892 1.23929 2.17037e-19)
(0.57919 0.635393 1.68166e-19)
(0.503398 0.437578 2.22415e-19)
(0.581691 0.454323 1.73749e-19)
(0.59773 0.471569 -2.49936e-19)
(0.576296 0.551592 2.01277e-19)
(0.540019 0.505672 -9.99661e-20)
(0.513188 0.482964 2.24901e-19)
(0.790827 0.265016 -7.62169e-20)
(0.75446 0.293352 0)
(0.75633 0.266814 4.69734e-21)
(0.684674 0.478185 6.93784e-20)
(0.660711 0.443774 -2.59868e-19)
(0.615611 0.480269 1.47044e-20)
(0.642743 0.465405 0)
(0.603671 0.595858 2.30249e-20)
(0.72941 0.772958 1.29626e-20)
(0.644553 0.765777 -1.76792e-20)
(0.743067 0.749042 -1.36931e-20)
(0.806094 0.845622 1.51904e-22)
(0.800073 0.828762 -1.55852e-22)
(0.817247 0.539232 -8.67408e-20)
(0.843387 0.614226 1.28155e-20)
(0.912856 0.675789 0)
(0.923266 0.6554 -1.39608e-20)
(0.940342 0.272374 3.1184e-20)
(1.06586 0.266322 1.96546e-20)
(0.984829 0.239719 5.04939e-20)
(0.916383 0.347068 -6.93261e-20)
(0.984179 0.401534 0)
(1.01657 0.388492 0)
(0.852935 0.338666 6.32162e-21)
(0.808469 0.297109 0)
(0.821343 0.283649 8.22949e-20)
(0.851664 0.264213 -5.42165e-21)
(0.856154 0.407401 3.20999e-19)
(0.830914 0.453497 8.1112e-20)
(0.803902 0.429668 -1.02348e-19)
(0.738596 0.39942 1.09994e-19)
(0.727173 0.401867 7.1716e-20)
(0.720449 0.404386 -6.97981e-20)
(1.00473 0.00430819 1.08462e-19)
(1.00756 -0.00296792 0)
(1.00901 0.00835251 7.25345e-20)
(1.01243 0.00483624 -1.61855e-19)
(1.01062 0.00176625 7.95042e-20)
(1.01336 0.0123385 -1.66876e-19)
(1.00901 0.0036 0)
(1.00657 -0.00584862 -3.49152e-20)
(1.00863 0.00136979 8.76801e-20)
(1.01706 -0.00148299 -4.4573e-20)
(1.01548 -0.00183493 3.28408e-20)
(0.00758286 1.8159 0)
(0.010068 1.77367 0)
(0.0121873 1.8279 0)
(0.0131453 1.82416 0)
(0.0257236 1.7829 2.92087e-20)
(0.0223311 1.80427 -5.2289e-21)
(0.0909565 1.77446 -1.73711e-20)
(0.0838312 1.7805 3.50929e-21)
(0.0202284 1.76592 -3.27266e-20)
(0.0186415 1.76779 2.41853e-20)
(0.0278458 1.78059 -7.95596e-21)
(0.0153691 1.78871 -1.16674e-20)
(0.0163303 1.78794 -1.24498e-21)
(0.0132501 1.77439 -3.47781e-21)
(0.0452108 1.72428 -8.18534e-20)
(0.0718688 1.72036 0)
(0.095683 1.71969 5.1714e-20)
(0.094825 1.76839 3.38044e-20)
(0.183123 1.7025 -3.58815e-20)
(0.141021 1.66001 0)
(0.130014 1.6313 -2.29647e-19)
(0.166586 1.63906 1.63746e-19)
(0.165386 1.72083 -9.8506e-20)
(0.1296 1.71662 5.42071e-20)
(0.107392 1.68111 0)
(0.017866 1.74976 -5.50901e-20)
(0.00453453 1.75269 -7.3384e-20)
(0.00739684 1.75133 0)
(0.0272127 1.75864 -1.88781e-21)
(0.0361053 1.76298 2.71242e-20)
(0.00663167 1.77952 3.05962e-21)
(0.00756649 1.78556 -4.71373e-20)
(0.00389967 1.7836 1.18467e-20)
(-0.00447405 1.76368 1.8017e-20)
(0.00224607 1.7638 0)
(0.000159814 1.78678 0)
(0.00486798 1.78172 1.44153e-20)
(0.00383123 1.78526 -4.42382e-21)
(0.00132053 1.7869 0)
(-0.00324386 1.78556 1.12035e-20)
(-0.00073795 1.7801 -2.19221e-20)
(1.00106 0.0168662 0)
(1.00435 0.0230986 -1.082e-20)
(1.00456 0.0112589 -7.8583e-20)
(1.00826 0.0141125 0)
(1.01302 0.0277729 0)
(0.996753 0.0081382 -2.88041e-21)
(0.996408 0.0088331 1.27975e-19)
(1.0002 0.0128366 1.59994e-19)
(1.01328 0.0101799 0)
(1.00968 0.0101255 0)
(1.00044 0.0142594 8.02405e-20)
(1.00162 0.0135566 0)
(1.00182 0.0148645 0)
(0.0117725 1.74256 0)
(0.0219311 1.74981 5.02016e-22)
(0.0228424 1.75497 5.70708e-21)
(0.0056226 1.78248 0)
(0.00952549 1.76055 7.00801e-21)
(0.00643073 1.76983 -4.66494e-21)
(-0.00167265 1.78361 0)
(0.383866 1.67846 0)
(0.327454 1.75894 -1.1152e-19)
(0.303675 1.73152 0)
(0.413833 1.75193 9.14654e-20)
(0.432036 1.80224 0)
(0.426692 1.80063 -2.11889e-20)
(0.759311 1.61126 -8.14815e-21)
(0.770534 1.42307 -4.50748e-19)
(0.829117 1.39487 4.91483e-19)
(0.580609 1.49595 1.15304e-19)
(0.551582 1.55466 0)
(0.630501 1.56026 0)
(0.71024 1.45524 0)
(0.643052 1.46901 -4.14075e-19)
(0.386152 1.6262 -2.18124e-19)
(0.493498 1.55148 -5.63429e-20)
(0.524792 1.62276 4.59459e-20)
(0.382242 1.5311 0)
(0.47129 1.53082 0)
(0.408534 1.53046 -1.25024e-19)
(0.463067 1.57147 0)
(0.133209 1.15471 0)
(0.101739 0.804142 2.58978e-19)
(0.348593 0.573775 1.44486e-20)
(-0.130562 1.43344 0)
(-0.0203679 1.55062 -3.67655e-19)
(0.633012 0.766051 2.30989e-22)
(0.605533 0.97881 0)
(0.635058 0.95054 -8.70421e-22)
(0.409312 0.808885 0)
(0.44277 0.807816 0)
(0.730026 2.23904 -2.15881e-20)
(0.626954 2.60995 -7.58819e-20)
(0.428109 2.45702 1.23347e-19)
(0.502921 2.2331 -5.75912e-20)
(0.801409 1.98254 0)
(0.826596 1.89882 7.32195e-20)
(0.841369 1.74843 -2.78053e-20)
(0.893575 1.554 8.31608e-22)
(0.433769 1.87437 0)
(0.173107 1.78443 -6.85381e-20)
(0.242896 1.72538 0)
(0.880366 0.202283 0)
(0.832621 0.166534 0)
(0.80029 0.173074 0)
(0.855428 0.219738 -1.30092e-19)
(0.80885 0.213381 8.09298e-20)
(0.899877 0.0650553 -7.79437e-20)
(0.9192 0.0838102 0)
(0.921963 0.0872787 3.43574e-20)
(0.87141 0.0764776 1.41761e-19)
(0.874377 0.0719229 -8.80678e-20)
(0.946005 3.49102 -3.82834e-19)
(0.905 3.44778 0)
(0.97268 3.46998 -8.2157e-19)
(0.556695 3.65891 7.6268e-19)
(0.697131 3.32147 2.92224e-19)
(0.503103 0.644524 -2.47239e-19)
(0.156598 1.1101 0)
(0.654845 0.493796 -2.35123e-20)
(0.609016 0.500515 2.4315e-21)
(0.668199 0.586828 -4.92154e-20)
(0.591306 0.54555 4.39518e-20)
(0.622069 0.515966 9.54789e-20)
(0.657284 0.502201 0)
(0.685777 0.559865 0)
(0.624713 0.522799 0)
(0.982802 0.541696 -1.30556e-20)
(0.832561 0.462931 -7.79863e-20)
(0.83515 0.501022 4.71342e-20)
(0.855306 0.485963 -5.92755e-20)
(1.00455 0.459686 0)
(1.03807 0.509024 -6.45238e-21)
(0.767057 0.366272 -1.64053e-19)
(0.782786 0.361462 -1.88275e-19)
(0.753755 0.366201 1.27382e-19)
(0.762241 0.343556 -1.40099e-19)
(0.791415 0.302454 -1.07957e-19)
(0.764232 0.30385 1.33028e-19)
(1.01201 -0.00413881 -8.41949e-20)
(1.01757 -0.000882089 1.72005e-19)
(0.997532 0.00699128 1.05861e-19)
(1.00143 0.0231661 -1.26747e-19)
(0.992215 0.0215113 0)
(0.997255 0.00728963 -2.02976e-19)
(0.0495413 1.78002 1.14171e-20)
(0.0474842 1.77159 0)
(0.0592876 1.7657 1.07099e-19)
(0.0651709 1.77212 -9.73978e-20)
(0.0707842 1.78134 3.23111e-20)
(0.0570849 1.76984 0)
(0.00243109 1.74599 0)
(0.00328558 1.77187 -4.76299e-21)
(0.00485577 1.77776 4.30504e-21)
(0.00633135 1.77009 2.48786e-21)
(0.00647367 1.74124 -8.45737e-21)
(0.00504572 1.74378 5.14274e-21)
(0.442877 1.7634 -2.60732e-19)
(0.438251 1.70482 2.72387e-19)
(0.411312 1.73009 -6.90644e-20)
(0.43562 1.71115 1.0971e-20)
(0.466102 1.61372 0)
(0.478314 1.76379 4.67631e-20)
(0.47893 1.70854 -4.55689e-20)
(0.415743 1.74747 6.7045e-20)
(0.421298 1.73675 0)
(0.368507 1.73778 0)
(0.384308 1.58623 3.34192e-19)
(0.385529 1.55475 5.08805e-19)
(0.420465 1.58108 -3.46651e-19)
(0.357795 1.57131 -6.33407e-20)
(0.311608 1.57668 1.06851e-19)
(0.258675 1.55984 -2.62095e-19)
(0.853661 1.40735 -2.73212e-19)
(0.886556 1.48492 0)
(0.889531 1.40264 -2.10656e-19)
(0.791893 1.77092 0)
(0.80877 1.69325 0)
(0.618239 2.83765 3.77691e-19)
(0.747169 3.41491 3.83797e-19)
(0.65704 3.34787 -3.66651e-19)
(0.629353 1.05456 0)
(0.706251 0.902456 5.52819e-20)
(0.546513 0.892543 2.4144e-19)
(0.700029 2.54062 0)
(0.679978 3.02468 -2.17701e-19)
(0.622331 2.76668 0)
(0.611453 0.542575 -5.19627e-20)
(0.720698 0.641997 1.01718e-19)
(0.743093 0.615745 -1.07824e-19)
(0.666624 0.514259 -1.03729e-20)
(0.683339 0.554577 -5.08291e-20)
(0.626138 3.19354 -2.88735e-19)
(0.590405 3.12383 2.52405e-19)
(0.590006 2.81827 -5.64277e-19)
(0.393864 2.6761 3.53746e-19)
(0.177453 2.56792 1.20419e-19)
(0.45448 2.9344 -5.11813e-20)
(0.392742 2.82701 -1.23923e-19)
(0.33065 2.61353 -1.59081e-20)
(0.16065 2.58408 -7.44827e-21)
)
;

boundaryField
{
    wall-4
    {
        type            noSlip;
    }
    velocity-inlet-5
    {
        type            fixedValue;
        value           uniform (1 0 0);
    }
    velocity-inlet-6
    {
        type            fixedValue;
        value           uniform (0 3 0);
    }
    pressure-outlet-7
    {
        type            zeroGradient;
    }
    wall-8
    {
        type            noSlip;
    }
    frontAndBackPlanes
    {
        type            empty;
    }
}


// ************************************************************************* //
