/*--------------------------------*- C++ -*----------------------------------*\
| =========                 |                                                 |
| \\      /  F ield         | OpenFOAM: The Open Source CFD Toolbox           |
|  \\    /   O peration     | Version:  4.0                                   |
|   \\  /    A nd           | Web:      www.OpenFOAM.org                      |
|    \\/     M anipulation  |                                                 |
\*---------------------------------------------------------------------------*/
FoamFile
{
    version     2.0;
    format      ascii;
    class       volScalarField;
    location    "13";
    object      p;
}
// * * * * * * * * * * * * * * * * * * * * * * * * * * * * * * * * * * * * * //

dimensions      [0 2 -2 0 0 0 0];

internalField   nonuniform List<scalar> 
918
(
0.233626
0.926794
0.00680569
0.233126
0.000333792
0.89393
-0.824948
0.421219
0.213613
-0.13915
0.019174
0.204996
0.754515
0.521834
-1.45752
0.0143607
0.372429
-0.66585
0.212095
0.0062086
0.496214
0.220276
0.223344
0.214037
0.269256
0.512581
0.635199
0.00127841
-0.00294422
-0.0020417
0.00366415
-0.00223738
0.00319008
0.777552
0.828665
0.851322
0.182713
0.0103441
-0.6709
-0.753538
-0.731183
-0.87119
0.407402
0.412671
-0.486234
0.419341
0.433668
0.201715
0.212985
0.214028
0.214914
0.214098
0.21538
0.284039
-0.165964
-0.22965
-0.0803343
-0.0600417
0.0767831
0.0204941
0.0158731
0.0213123
0.0225269
0.143388
0.201756
0.19772
0.209146
0.218721
0.866345
0.838218
0.864356
0.778192
0.794639
0.732441
0.704905
0.541432
0.562946
0.507968
0.495414
-1.90092
-2.87724
-0.855253
-0.593912
0.00152545
0.0210949
0.0262745
0.352164
0.360384
0.364968
0.377181
0.777469
-0.643608
-0.778846
0.211819
0.210571
0.220206
0.22099
0.217032
0.216256
0.0135994
0.0209671
-0.00335406
0.00557582
0.00347808
0.475267
0.469397
0.214788
0.211731
0.225976
0.250113
0.23759
-0.0140086
0.284746
0.312619
0.315137
0.491979
0.491542
0.498526
0.608807
0.571676
0.672446
0.695749
0.00678449
0.00164789
0.0110172
0.00723209
0.0106755
0.180377
0.175308
0.193896
0.184443
0.187748
-0.0701724
-0.199412
0.0889593
0.115959
-0.583472
-0.66054
-0.735866
-0.761455
-0.855304
0.174489
0.395435
0.398389
-0.501693
-0.413052
-0.569271
-0.337523
-0.413099
0.190511
0.198998
0.193523
0.208515
0.203547
0.204484
0.217287
0.214488
0.215968
0.308737
0.376418
0.245696
0.223003
-0.456328
-0.297208
-0.438768
-0.0314159
-0.0210858
0.0865425
0.0998237
0.0667291
0.0650113
-0.00345572
0.0136184
0.000229393
0.0243475
0.0265938
0.137447
0.127782
0.152022
0.15907
0.192834
0.193334
0.196124
0.196679
0.655623
0.677961
0.685507
0.659113
-3.89106
-6.7131
-0.257776
-0.113052
0.00240825
0.00292734
0.00144972
0.00436044
0.00347448
0.00107475
0.040714
0.0380088
0.0297973
0.034334
0.340455
0.345766
0.747575
0.816511
0.683198
0.696931
0.199776
0.203021
0.207719
0.203491
0.0264873
0.0226433
0.0270313
0.434071
0.452834
0.455132
-0.0479862
-0.135817
0.0340108
0.060915
0.329513
0.313294
0.334389
0.380602
0.417878
0.702919
0.72133
0.719781
0.72828
0.772158
0.788472
0.753818
0.164271
0.173388
0.169188
0.19902
0.195375
0.196435
0.191888
0.194959
0.192822
-0.351701
-0.732891
0.215187
0.20717
0.159618
0.174416
0.240308
0.331798
0.373843
0.38362
0.390694
-0.271859
-0.341003
0.18728
0.171714
0.086501
0.114547
0.0995817
0.626797
0.586984
0.637012
0.610486
0.571877
0.598377
-0.682078
-2.21756
-1.31139
0.254675
0.0582034
0.150869
0.056764
0.0448186
0.0481004
0.736414
0.769583
0.422483
0.567782
0.532657
0.457002
0.488998
0.545303
0.468897
0.504939
0.54139
0.521221
0.143835
0.217671
0.141602
0.419692
0.505119
-0.160322
-0.206193
-0.26826
0.110958
0.143826
0.127227
0.661041
0.565833
0.639961
0.211543
0.211986
0.0110268
0.0183672
0.216021
0.216315
0.00751497
0.00825198
0.129511
-1.16778
-0.169113
0.204058
0.194514
0.211483
-0.139207
0.299056
0.0190755
0.087881
0.0587972
0.2014
0.153841
0.118026
0.00721839
0.0196551
0.0147437
-0.433046
0.20902
0.207118
0.211045
0.212206
0.21302
0.00916013
0.0101195
0.00738678
0.012133
0.0103325
0.00969431
0.180515
0.191355
-0.484213
0.211331
0.213418
0.213363
0.206825
0.211939
0.209992
0.0154198
0.0106971
0.0105176
-0.0626556
0.0538631
0.389752
0.502568
0.337682
0.110472
-0.134915
0.284606
0.35449
0.249649
0.419955
0.37697
0.40273
-0.113061
-0.259013
-0.0983792
-0.151622
0.202062
0.201177
0.193465
0.189788
0.206809
0.205203
0.209173
0.207062
0.209471
0.210411
-0.0798167
-0.0644963
-0.18173
-0.247933
0.326352
0.405629
0.207929
0.241759
0.139604
0.0229217
0.0226448
0.0187593
0.0166996
0.0525306
0.0627445
0.0779451
0.068192
0.0482698
0.0460465
0.0512159
0.0568514
0.0612613
0.196282
0.196394
0.200772
0.207879
0.160707
0.16454
0.135805
0.151532
0.142471
0.0861167
0.117732
0.0972369
0.00850419
0.00954673
0.00804656
0.0236757
0.0280188
0.0150844
0.0129986
0.0130666
0.0108561
0.0114855
0.018825
0.0219274
-0.447198
-0.541755
0.749873
0.635065
-0.456005
0.197851
0.204021
0.201314
0.206406
0.209086
0.209556
0.20759
0.204983
0.192322
0.193584
0.190279
0.190942
-0.424397
-0.570042
-0.389874
-0.449571
-0.173233
0.316457
0.0658016
0.00495762
0.001982
0.213778
0.590131
0.406396
0.45554
0.475159
-0.669902
-0.265508
-0.599475
0.0161246
-0.163741
0.390141
0.442511
0.4651
0.411145
0.359124
-0.423119
0.197071
-0.36137
-0.33044
-0.144816
-0.22788
0.426923
0.361252
0.366977
0.389937
0.41402
0.364395
0.346116
0.342367
0.38183
0.386698
0.178304
-0.0247102
-0.0733012
-0.106766
0.341379
0.221414
0.275994
0.196524
0.196415
0.199437
0.198517
0.18347
0.189063
0.184365
0.190057
0.192049
0.202546
0.20218
0.197962
0.200409
-0.0362516
-0.0234008
-0.149013
-0.362726
-0.250225
-0.348432
-0.222428
0.0169107
0.0436124
-0.136155
0.134652
-0.118095
-0.419871
-0.301916
-0.490833
-0.1664
-0.287045
0.0934859
0.148705
0.159553
0.137072
0.201435
0.185605
0.0378018
0.0460066
0.0291762
0.0284996
0.091926
0.11184
0.108998
0.0467546
0.0489702
0.0253427
0.0263215
0.0633697
0.0394228
0.0503018
0.0619766
0.0210878
0.0238676
0.0285883
0.0377674
0.0378351
0.0404794
0.191505
0.193764
0.192153
0.203911
0.215309
0.228825
0.199558
0.177541
0.170247
0.173938
0.151124
0.157476
0.156325
0.164924
0.183114
0.18897
0.18833
0.189951
0.176285
0.177973
0.165152
0.168831
0.152682
0.136578
0.124591
0.0183443
0.0114993
0.0151629
0.0155428
0.0106228
0.0127058
0.0417441
0.0331971
0.0371244
0.0326804
0.036759
0.0169943
0.0179797
-0.555553
-0.571865
-0.519416
-0.562465
-0.583827
0.662229
0.702494
0.586769
0.290259
0.278252
0.54852
0.716101
0.381893
0.459754
0.483816
0.113778
0.415685
0.204696
0.203392
0.200319
0.200772
0.20285
-0.318938
-0.222163
-0.223609
-0.176361
-0.037997
0.0650973
0.135613
-0.190809
-0.0447442
0.0116772
0.3099
0.326439
0.272511
0.297108
0.295375
0.12949
0.200215
0.24629
0.212751
0.250648
0.269435
0.232086
0.261001
0.214709
0.175669
0.176084
0.123413
0.139423
0.120756
0.105013
0.192945
0.173043
0.182402
0.175381
0.193409
0.225027
0.216625
0.238531
0.254971
0.183424
0.146108
0.154434
0.182725
0.143625
0.154888
0.169727
-0.0895894
-0.185477
-0.135903
-0.439365
-0.326843
-0.338886
-0.386912
-0.367382
-0.088187
-0.788682
-0.736638
-1.37424
0.131089
0.624366
0.383876
0.351902
0.410884
0.384771
0.383319
0.421834
0.428359
0.333344
0.352284
0.354528
0.305868
0.332358
0.361319
0.358119
0.174906
0.0686404
0.0583841
0.0277791
-0.0983665
-0.0699774
0.142205
0.0655211
-0.00948937
-4.20358e-05
0.1607
0.0614142
0.11909
0.155675
0.0880036
0.0472579
0.23657
0.302017
0.297462
0.265144
0.187481
0.199815
0.223591
0.255034
0.283494
0.320495
0.191005
0.195393
0.197264
0.1953
0.191261
0.194367
0.193764
0.195977
0.196389
0.198991
0.198134
0.0149683
0.0180366
-0.00369
0.00453535
-0.0159863
-0.0457176
-0.00309229
-0.0617374
0.0285358
0.0220161
-0.0102679
-0.0110404
-0.00148042
0.0122685
0.11621
0.1313
0.115083
0.0662739
0.0293238
0.285293
0.240357
0.176293
0.0810641
0.157917
0.254451
0.0724368
0.0828682
0.0709864
0.0905019
0.0856275
0.031826
0.028249
0.0315481
0.0412146
0.0377487
0.0286997
0.0236181
0.0253948
0.0276927
0.0268742
0.026671
0.177121
0.17328
0.175428
0.169306
0.167963
0.180418
0.183269
0.184564
0.189162
0.190746
0.18294
0.186373
0.189745
0.0277972
0.0215513
0.0235325
0.023867
0.0232726
0.0203502
0.0208062
-0.505854
-0.575609
-0.882796
-0.491754
-0.514479
-0.518694
0.188391
0.0328986
0.184959
0.286183
0.176161
0.096226
0.142505
0.219696
-0.053316
0.0376298
-0.109939
0.571282
0.390452
0.553204
0.0788843
-0.107002
0.026427
0.0859519
-0.0990634
-0.0433594
-0.00174532
-0.110746
-0.0824454
-0.0541899
0.0418555
-0.0408649
-0.0597102
-0.237443
-0.0198019
-0.0156206
-0.0436068
0.0891225
0.154176
0.0313328
-0.114837
-0.169258
0.300189
0.319137
0.334205
0.310369
0.328622
0.258075
0.2478
0.267149
0.277057
0.27097
-1.11616
-0.835744
-1.76249
-1.07085
-0.654389
0.155502
0.116933
0.396356
0.299902
0.385308
0.367544
0.333975
0.298268
0.299625
0.337766
0.0566326
0.160194
0.135011
0.140643
0.0477616
-0.0129668
0.267732
0.264613
0.300691
0.325368
0.29058
0.327786
0.187941
0.187314
0.188419
0.184986
0.181199
0.183026
0.0796261
0.0642557
0.0645312
0.0481865
0.0428713
0.052943
0.0321074
0.0287923
0.0258883
0.0263754
0.0298593
0.0337378
-0.177935
-0.340675
-0.439004
-0.47616
-0.335823
-0.436742
-0.428633
-0.391905
-0.262878
-0.26494
-0.0433027
0.246183
-0.0169897
0.241495
-0.0772603
0.118264
0.216851
0.181869
0.222937
0.0834397
0.180891
-0.200221
-0.645213
-0.566873
0.424005
0.434218
0.206252
-0.00601766
-0.213519
0.0037983
0.211326
0.154718
0.195954
0.261394
0.259239
-0.357081
-0.276477
-0.0970033
0.147446
-0.149158
-0.146912
-0.160488
0.00121005
-0.0680696
)
;

boundaryField
{
    wall-4
    {
        type            zeroGradient;
    }
    velocity-inlet-5
    {
        type            zeroGradient;
    }
    velocity-inlet-6
    {
        type            zeroGradient;
    }
    pressure-outlet-7
    {
        type            fixedValue;
        value           uniform 0;
    }
    wall-8
    {
        type            zeroGradient;
    }
    frontAndBackPlanes
    {
        type            empty;
    }
}


// ************************************************************************* //
