/*--------------------------------*- C++ -*----------------------------------*\
| =========                 |                                                 |
| \\      /  F ield         | OpenFOAM: The Open Source CFD Toolbox           |
|  \\    /   O peration     | Version:  4.0                                   |
|   \\  /    A nd           | Web:      www.OpenFOAM.org                      |
|    \\/     M anipulation  |                                                 |
\*---------------------------------------------------------------------------*/
FoamFile
{
    version     2.0;
    format      ascii;
    class       surfaceScalarField;
    location    "13";
    object      phi;
}
// * * * * * * * * * * * * * * * * * * * * * * * * * * * * * * * * * * * * * //

dimensions      [0 3 -1 0 0 0 0];

internalField   nonuniform List<scalar> 
1300
(
3.75095
5.62643
-6.21213
3.75095
-6.06017
5.62643
-4.48746
4.48746
-1.46505
1.46505
1.87688
1.87407
-4.45559
4.45559
-4.77207
4.77207
-2.82412
2.82412
-5.24641
5.24641
-5.06741
5.06741
4.69023
-4.69023
-4.9175
4.9175
-1.8829
1.8829
-3.97317
3.97317
3.17633
-3.17633
-5.08787
5.08787
-0.517038
0.517038
-0.554548
4.3055
3.19641
3.19641
-2.54635
2.54635
-4.84975
4.84975
6.21823
-6.21823
9.42877
-9.42877
-3.21664
-3.39476
1.35236
-8.11585
-4.7078
-4.7078
-8.44042
8.44042
-2.81399
2.81244
2.93954
-2.93954
-1.6841
1.6841
-4.47912
-0.00833697
-4.47912
4.46539
0.0220697
4.46539
-1.59432
0.12927
-1.59432
4.09542
-4.09542
1.29609
0.168958
1.29609
3.06345
-3.06345
-1.87714
3.75402
1.87381
-1.87285
6.17835
-1.8781
3.75217
-5.01017
5.01017
-4.29275
-0.162847
-4.29275
4.58229
-0.1267
4.58229
-5.22863
5.22863
-4.72707
-0.0450031
-4.72707
4.84102
-0.068946
4.84102
3.04106
-3.04106
-2.85573
0.0316038
-2.85573
2.77884
0.0452855
2.77884
0.353587
5.27284
-5.98002
8.79246
-5.27284
0.026437
5.20849
0.0379133
5.20849
-5.10596
0.0385536
-5.10596
5.01017
0.0572381
5.01017
4.78514
-0.0949128
4.78514
-4.80227
0.112045
-4.80227
-3.3241
-3.36328
-5.01292
0.0954266
-5.01292
-1.929
0.0461051
-1.929
1.84058
0.0423193
1.84058
-3.50776
3.50776
-4.08978
0.116608
-4.08978
3.1301
0.0462303
3.1301
1.8682
1.88275
5.61916
-5.61916
2.44283
-5.0514
-0.0364643
-5.0514
-5.12804
-4.30073
5.12804
-0.0401763
-0.822856
0.305818
-0.822856
3.15779
0.0386203
3.15779
2.70067
0.0781672
-2.70067
0.154324
3.43229
-3.43229
1.90317
0.643183
1.90317
-5.57288
5.57288
4.94786
0.0623086
-4.94786
0.098109
6.15715
0.0610769
6.15715
-6.19948
-0.0187457
-6.19948
3.38131
-6.77607
-3.39834
4.81244
0.105061
-4.81244
0.104633
2.95061
-0.0110664
2.95061
-2.90113
2.90113
-2.96434
0.0248007
-2.96434
-2.11822
0.434124
-2.11822
1.3649
0.319198
1.3649
-4.39407
-0.0850537
-4.39407
-4.31582
0.226038
4.31582
0.149574
0.794458
-0.794458
-1.71372
0.119406
-1.71372
-4.23733
-0.156743
4.23733
-0.141911
-3.99197
-0.103447
-3.99197
-3.01036
0.0460185
3.01036
0.0530926
3.11555
0.0422393
-3.11555
0.052091
-1.87122
3.75397
-1.87973
3.75354
-4.79765
-0.212522
-4.79765
5.14896
-0.138792
5.14896
4.09846
-0.125286
-4.09846
-0.194288
4.65524
-0.0729493
4.65524
-5.22973
0.00110363
-5.22973
5.24089
-0.0122601
5.24089
4.70278
-0.047535
-4.70278
-0.0242912
4.92312
-0.0820988
4.92312
3.09274
-0.0516808
3.09274
-3.00681
-0.0342517
-3.00681
2.88358
-2.88358
2.87658
0.00700463
-2.87658
0.0208509
-11.1327
11.114
-0.0349669
-11.0977
5.17353
5.17353
4.20296
0.582177
4.20296
-5.01093
0.208657
-5.01093
3.3328
-6.73114
3.37614
-6.70024
3.35271
-11.4686
3.33749
-6.70077
5.16528
-5.16528
5.09416
0.0711184
-5.09416
0.0812353
-1.97176
0.0427549
-1.97176
-3.02619
-0.481564
-3.02619
3.94531
-0.437557
3.94531
-3.02236
3.02236
-3.07791
0.0555583
3.07791
0.0521812
4.99614
-0.073021
-4.99614
-0.0552651
1.07046
0.225635
-1.07046
0.247599
3.62466
-0.192378
3.62466
-3.26318
-0.169108
-3.26318
-1.93632
-0.0354411
1.93632
-0.03315
-5.81843
0.245547
-5.81843
-11.1908
0.0930567
-11.1529
-6.10642
-6.10642
2.334
11.1265
-2.9748
-0.0320091
2.9748
-0.0241891
2.95655
0.0658074
-2.95655
0.0554141
-2.88346
-0.000126508
2.88346
0.0176769
-2.52879
0.410569
-2.52879
-0.987183
0.987183
-1.14683
0.159647
1.14683
0.218072
1.06093
-0.266476
1.06093
1.77498
0.0655973
-1.77498
0.0612549
-3.89441
-0.0975569
-3.89441
5.2278
-0.0788344
5.2278
-3.15377
-0.109412
3.15377
-0.0610252
-0.0333321
11.1473
-5.14019
0.0342345
5.14019
-11.2084
11.2426
-3.22843
0.699637
3.22843
0.974534
5.29722
0.275657
-5.29722
0.286293
5.2182
0.0226899
-5.2182
0.052917
-2.5005
-0.525695
-2.5005
-4.4221
-0.375552
4.4221
-0.476782
-11.4756
-0.201534
11.6771
-11.4184
6.01996
0.137187
-6.01996
11.3798
-0.790188
-0.00426974
0.790188
0.196996
1.46001
-0.399075
1.46001
3.79061
-0.165944
-3.79061
-0.103803
-5.24193
0.0122057
5.24193
-0.0141382
-1.93884
-0.561657
1.93884
-0.478834
-4.26689
4.30551
1.91147
-3.3652
-3.41088
-7.66592
1.85196
1.90202
4.29479
-7.07613
-4.39243
-6.97149
7.27701
-6.99072
-9.31565
9.22074
7.44123
-7.54467
-5.7734
5.82558
6.45963
-6.40653
1.88052
1.8735
9.04156
-9.20441
-11.93
11.7175
10.1263
-10.1713
11.0178
-11.0167
-12.5588
12.5815
-5.74827
5.77987
-6.60765
6.5734
-6.78853
6.7275
-3.29156
-3.40867
9.14084
-9.04541
11.751
-11.7875
-7.25657
7.37318
3.38644
0.919068
3.42868
-1.88139
3.76191
-1.87078
3.78225
3.3913
-6.68287
3.33983
-6.75071
6.07434
5.67666
-6.03416
-1.63176
-5.85958
5.84852
-5.85201
5.86968
8.86537
-8.87371
-1.88471
3.75821
-1.86884
3.77085
-3.4192
-2.3542
3.37297
0.921813
5.60188
3.53897
-5.70694
-1.26456
-7.63666
7.47072
-7.9184
7.74929
-0.459078
5.82711
-5.36803
4.39067
-1.55286
7.37997
5.72415
5.93281
5.86959
-5.59393
1.12113
-6.48916
-6.39105
-2.71536
2.83476
2.65507
-2.48612
5.86919
1.57204
5.72728
-5.42802
-2.11665
-5.52558
3.81241
2.01317
3.86797
4.02326
2.43637
4.06928
3.03346
-3.03657
0.0031059
-3.06012
6.09358
0.721645
-5.41431
-4.4925
6.33265
2.70891
6.20595
-5.52722
-3.6772
-5.7215
-7.28253
-4.64745
-7.65808
7.36562
4.35183
7.22683
-8.36859
8.35445
6.75576
3.37052
6.68681
-6.64281
-3.52847
-6.6671
10.5861
-2.56897
-8.01716
-7.06507
-5.49375
7.07733
3.94048
7.61885
4.96266
7.67176
3.56924
7.01689
-7.50973
2.01598
-3.8414
-1.90687
-3.82055
3.74004
2.03983
3.78532
-4.13137
-2.47628
-4.16338
-4.1994
-2.58913
4.25108
2.32232
-4.31583
-3.60257
4.42524
2.30226
3.07818
-7.47061
3.62259
-7.03126
-6.37184
-2.67358
-6.2906
4.13427
2.61146
-6.74574
-2.54859
10.9311
-5.25441
9.2993
-7.29772
-4.48974
-7.35299
-6.04336
-1.2132
-5.81733
-8.55472
8.02903
-7.80186
7.36431
14.6945
-6.16449
-8.53002
-3.96996
-2.43657
3.91787
-0.489188
-3.71295
3.71606
0.0489569
3.8312
4.75027
4.26108
-3.87796
-1.97405
-3.82254
3.86813
2.00155
3.868
6.58104
2.28433
6.60311
-6.44072
-2.43299
-6.52577
9.01803
-8.58391
2.91762
-2.95306
5.16375
2.58554
-4.97138
-2.66529
6.00874
-3.03991
-2.96883
-12.232
10.607
1.62498
-4.85203
-0.461354
0.0556843
-5.51933
-3.79631
5.40729
0.525517
11.1325
7.33621
-5.51528
5.76083
6.16184
6.22415
-0.166895
5.84662
-5.14698
5.1565
-2.25572
-2.90078
5.25706
-5.4138
-1.26871
-5.2986
4.02989
0.313475
1.88894
-1.58312
-2.11621
-0.599144
-2.05496
1.59397
1.0611
1.81961
1.00395
1.83082
-2.93096
0.526031
2.40493
-1.92701
-1.96009
-3.59276
-0.908432
4.50119
5.45539
2.01533
-5.35158
-0.173994
2.76966
-2.72734
-0.878037
-2.71472
1.92345
-2.80148
-3.43725
-1.79536
5.23261
-3.36993
-0.452613
3.30412
0.563845
-3.7481
-2.11148
3.7233
0.345982
-3.12159
6.23038
-3.10879
-5.09564
2.53167
3.5619
4.54485
-4.8155
2.44894
2.36656
-1.2536
5.61637
0.589576
5.54342
-7.72188
4.04469
5.45613
1.91705
-5.33084
-0.390659
-8.11254
10.8581
-8.02888
-2.82922
6.72385
4.13425
6.41552
8.27899
-6.38599
12.8015
1.13237
-9.16125
6.98017
-5.06312
3.71375
-8.77687
-11.9927
2.83149
-7.75046
8.83814
-1.08768
-2.3821
-5.98649
10.1326
-1.1615
-8.97105
6.06532
-5.49494
-5.28749
10.7824
-8.0639
8.81596
-2.8385
-5.97746
-6.99016
-4.02655
6.97796
1.37649
-9.99535
12.0113
-2.97847
5.89838
0.788431
5.81628
4.18313
-6.01221
1.82908
3.88077
-6.71928
3.2004
-9.21261
-4.93066
9.616
-4.68534
-7.60423
-6.81312
-0.791117
2.02893
9.9824
-6.9916
5.36083
1.63076
3.3433
0.524703
-3.35031
-0.470241
0.350749
4.44076
-4.79151
4.13607
4.21424
3.36593
1.07482
3.81993
2.02859
-3.79574
-0.367644
-4.02115
1.43202
-1.69883
-3.54105
4.97307
-3.95906
0.418017
-2.6421
-3.48918
6.13128
-4.54897
3.08623
3.14415
5.08778
-4.85021
1.36103
-2.40399
-2.44622
2.59803
-4.29686
1.88714
3.08593
4.1894
0.586833
4.89656
4.71944
-7.50802
0.476757
8.25841
-6.99385
1.72406
5.94771
-7.08489
0.271777
-6.01882
1.0956
-6.35001
-5.65014
4.23689
-5.45009
-4.53998
5.73952
0.863589
-5.8891
0.0717717
-5.84443
-2.71029
-6.40609
-2.26869
-5.53317
-8.65468
-2.0143
-6.64039
6.01473
-5.2975
-2.36058
5.77428
1.59003
-7.2787
7.27443
-7.5936
7.19453
0.0883524
3.62771
4.34944
1.91286
-2.37411
4.28697
-4.96356
7.24789
-8.65872
3.69517
4.07393
-6.50692
-4.5848
4.92671
4.09132
5.24591
9.05807
-10.4974
1.43929
-10.7255
12.7867
-2.06127
-16.6375
5.91201
-7.57938
2.64655
0.271068
2.68931
0.676173
2.35155
-3.02772
-2.27689
-2.31004
-2.26178
-3.25911
5.52089
1.18505
-3.28842
2.10337
-3.41719
4.60224
-0.075016
-3.2134
5.12263
-2.77108
5.3937
-3.49221
1.90149
3.23766
5.47518
-2.23752
4.1665
-1.58096
1.7579
-3.99542
-1.50121
-2.96727
5.00711
-3.164
3.58202
-0.215601
3.79762
-4.0043
0.96439
-0.638371
3.57587
3.73019
4.10665
-3.03182
2.8576
-4.43856
-1.13782
-3.85173
-0.765799
-0.759295
-3.59685
4.35615
5.85352
-6.61281
-5.38577
9.58999
-4.20421
7.71249
-5.46614
-2.24635
-4.25926
-4.32465
3.84869
1.99793
9.71042
0.172671
-5.63881
-4.97431
-3.99978
3.13368
2.02282
-2.0628
3.68778
2.00711
-0.118174
0.642385
1.17722
1.89857
-1.25619
0.158302
1.74027
-1.42482
2.04377
0.725891
-2.10937
0.0544096
-1.42107
3.34452
0.983855
-2.04496
0.788769
1.0884
-3.34413
4.65979
-2.27716
-2.38263
5.74819
1.22399
-3.50115
4.07461
-3.76113
2.28492
-3.19335
-1.21623
-4.97737
-3.40533
-2.45296
4.55633
-3.06793
5.08326
1.11909
-4.90927
6.02835
-3.4473
1.65194
-3.0645
3.79039
-1.15494
-1.90956
2.62085
2.61176
-2.78994
0.0752216
-0.169099
2.19508
-2.36417
-0.606409
-2.53342
-4.55324
4.89922
-2.17009
4.61903
2.11688
-1.927
6.54603
1.83347
-3.76047
-3.26217
-3.71478
-1.39391
3.15094
-1.05697
-5.61013
-7.03443
5.65766
-0.114238
-8.14809
10.078
-1.92987
-5.43918
1.39449
5.32936
-7.73064
1.01136
-4.53024
5.54773
6.1373
6.02307
-9.4902
0.519151
-5.13837
2.24741
-7.38578
6.38165
-5.12122
7.95271
-9.27032
6.90974
-7.68029
5.12349
-2.26229
5.60086
-3.77178
2.4163
-6.44285
-5.06635
7.00806
-3.63754
7.79649
-4.16642
11.9629
-7.14489
7.00669
4.95622
-1.45715
-5.89583
-6.85411
5.39696
0.152574
5.96886
4.92288
-2.89429
4.55524
2.2179
-4.62189
-2.07896
-6.47484
1.85295
-3.33069
-1.87952
3.73247
3.20826
3.73296
1.28624
-3.26272
6.74089
-7.53201
-2.05555
-3.59459
6.76623
-1.36927
4.07351
-7.6681
-2.2765
6.20497
-0.541978
-5.66299
-0.0404783
-4.4995
0.774028
-5.27353
4.67607
-4.60429
2.17762
-9.757
-5.10108
-4.90408
-2.40208
-5.19152
-7.72844
5.32636
-1.81643
5.458
-8.81607
8.27409
-3.97065
9.297
-5.40134
-1.00475
5.88018
1.31435
10.6114
0.0200038
-4.6048
-1.80004
3.82512
-2.02508
1.33364
-3.57685
0.248272
2.44364
3.30455
-6.47353
-0.0333897
-4.63819
-3.81977
7.91109
5.77022
11.6237
1.12637
9.14346
-1.23237
10.2698
4.01354
4.23161
-3.27698
4.71627
1.07917
4.77434
-0.851655
2.75315
1.83765
1.88376
0.843584
2.27726
1.45293
3.24165
0.213922
-2.09612
4.69267
-8.69245
-0.94614
-8.11027
1.11047
5.77855
-4.66809
3.0356
-1.01278
1.01052
0.208506
-1.83755
1.62904
-2.69227
-1.95572
-0.215451
-1.50016
2.28893
1.84436
-2.07348
-0.618792
0.265405
-3.67073
2.92795
-2.85273
-0.240966
5.78739
-2.65874
0.294561
-1.0068
-2.23886
-2.838
2.78359
6.24666
0.299374
3.13787
5.1986
3.08711
0.192818
5.34129
-6.42897
-3.87132
-5.90982
0.47183
5.80119
2.10841
7.87399
7.06463
5.69535
-1.97274
-9.50476
8.0008
-3.28453
5.93954
-0.276542
-4.99699
4.53365
2.71423
-5.39724
0.792949
-4.20404
-7.48857
-0.50958
8.78367
-10.1018
9.09703
6.38673
0.253652
-4.22701
-0.677078
4.06736
0.164249
10.4341
-1.15582
-6.97217
8.12799
-4.62273
3.67659
0.847495
2.84029
2.47654
1.46376
-5.50841
-10.1765
-1.76116
-1.58297
-4.14378
0.357409
-2.20177
6.28037
-2.60377
4.03402
5.52422
6.53474
-2.32856
-4.28426
6.53277
-2.49876
4.03598
)
;

boundaryField
{
    wall-4
    {
        type            calculated;
        value           uniform 0;
    }
    velocity-inlet-5
    {
        type            calculated;
        value           uniform -3.75095;
    }
    velocity-inlet-6
    {
        type            calculated;
        value           uniform -5.62643;
    }
    pressure-outlet-7
    {
        type            calculated;
        value           nonuniform List<scalar> 8(6.21213 6.06017 6.6114 6.76348 6.68738 6.77965 6.70894 6.69019);
    }
    wall-8
    {
        type            calculated;
        value           uniform 0;
    }
    frontAndBackPlanes
    {
        type            empty;
        value           nonuniform 0();
    }
}


// ************************************************************************* //
