/*--------------------------------*- C++ -*----------------------------------*\
| =========                 |                                                 |
| \\      /  F ield         | OpenFOAM: The Open Source CFD Toolbox           |
|  \\    /   O peration     | Version:  4.0                                   |
|   \\  /    A nd           | Web:      www.OpenFOAM.org                      |
|    \\/     M anipulation  |                                                 |
\*---------------------------------------------------------------------------*/
FoamFile
{
    version     2.0;
    format      ascii;
    class       volVectorField;
    location    "13";
    object      U;
}
// * * * * * * * * * * * * * * * * * * * * * * * * * * * * * * * * * * * * * //

dimensions      [0 1 -1 0 0 0 0];

internalField   nonuniform List<vector> 
918
(
(0.985272 -0.000406405 0)
(0.00500063 2.96626 0)
(-0.00397061 1.64799 0)
(0.979779 0.0020621 0)
(0.000738491 1.61394 1.23859e-21)
(-0.00702851 2.94878 -1.89918e-18)
(0.850203 1.1829 7.27212e-19)
(0.500536 0.23914 -9.2116e-21)
(0.999966 -0.000451343 0)
(0.0183231 1.30906 0)
(-0.00805237 1.38832 0)
(0.831983 -0.0049052 0)
(0.0110955 2.93031 0)
(0.00165249 2.79448 0)
(-0.0182791 3.17262 1.08266e-18)
(-0.00333709 1.52808 -1.65108e-20)
(0.5971 0.106388 5.71946e-19)
(0.184678 1.26448 5.58775e-19)
(0.965732 0.00553681 0)
(0.00143072 1.50626 0)
(0.17184 0.276611 -4.88719e-19)
(1.00132 -0.00524357 0)
(1.00011 -0.0100302 0)
(0.975462 -0.00668504 0)
(0.749014 -0.0246574 0)
(0.0177548 2.62909 0)
(-0.0152388 2.91024 6.58803e-19)
(-0.010299 1.6741 0)
(-0.0104677 1.7658 0)
(-0.00938073 1.67115 0)
(0.00374992 1.80255 0)
(0.00193052 1.62819 -9.80564e-22)
(-0.00181048 1.5384 0)
(-0.0206148 2.98758 -6.65405e-23)
(-0.0167089 3.00531 1.47633e-18)
(0.00210615 3.00022 0)
(0.874859 -0.00513554 0)
(0.3721 0.893457 -2.78904e-20)
(0.842255 1.19807 -1.01267e-18)
(0.985339 1.05479 9.53068e-19)
(0.708661 1.28791 -1.70341e-19)
(0.695819 1.26667 9.47214e-19)
(0.533647 0.309081 8.98763e-21)
(0.526567 0.211927 0)
(1.19489 0.572628 0)
(0.493378 0.325199 4.17e-20)
(0.458771 0.235954 -4.32693e-20)
(0.918496 -0.00735695 0)
(1.00044 1.132e-05 0)
(0.999956 0.000358089 0)
(1.00428 -0.00776475 0)
(1.00055 -0.000681513 0)
(1.00012 0.000156304 0)
(0.0390998 1.58183 -5.45601e-19)
(-0.00712728 1.40482 0)
(0.021555 1.25455 0)
(-0.0099334 1.46841 0)
(0.0180619 1.33114 0)
(0.00189299 1.57418 0)
(-0.0107625 1.53422 0)
(0.00136799 1.37912 0)
(-0.0154182 1.56008 0)
(-0.0100369 1.41226 0)
(0.906019 -0.000406551 0)
(0.906679 0.00679336 0)
(0.845428 0.00102393 0)
(0.89942 0.0102371 0)
(0.819938 -0.00625844 0)
(0.0147087 3.00039 6.95789e-19)
(0.011542 3.00786 0)
(0.00614481 3.00286 0)
(0.0135712 2.99732 7.76664e-24)
(0.00798732 2.95845 -1.03411e-18)
(0.0145182 2.98207 0)
(0.0107757 2.90363 0)
(0.0254393 2.93 1.40123e-24)
(0.00392937 2.82511 0)
(0.0322839 2.91509 0)
(-0.00713118 2.74438 0)
(0.311376 3.57268 0)
(-0.13246 3.65531 0)
(0.141035 3.2632 -1.00759e-18)
(-0.00958495 2.99433 0)
(-0.00428188 1.78292 0)
(-0.00338674 1.64735 1.62882e-20)
(-0.00319706 1.54102 -2.55269e-20)
(0.658408 0.164703 -1.96477e-19)
(0.618374 0.0710726 -1.89873e-19)
(0.625848 0.196848 -5.88411e-19)
(0.581574 0.133257 -3.93003e-19)
(0.276209 1.09332 0)
(0.215188 1.29402 -5.85406e-19)
(0.342541 1.27465 9.77216e-19)
(0.988566 0.00915931 0)
(0.944169 0.0081141 0)
(1.00033 0.00063528 0)
(1.0027 0.00946948 0)
(1.00234 0.00852971 -1.10067e-18)
(0.991921 0.00972157 8.31551e-19)
(-0.00690468 1.61424 0)
(-0.00392837 1.50106 0)
(-0.0135383 1.68372 0)
(-0.00940716 1.63698 0)
(0.00143318 1.52063 0)
(0.253635 0.286286 1.5065e-19)
(0.294155 0.267831 0)
(0.993074 -0.0086601 0)
(0.954004 -0.00631561 0)
(0.875437 0.0197421 0)
(0.840369 0.0327679 0)
(0.795967 -0.00549017 0)
(1.02616 -0.0042976 0)
(0.789958 0.0363148 0)
(0.670376 -0.017446 7.72296e-19)
(-0.0346882 2.86757 3.41805e-19)
(0.0440507 2.90779 0)
(0.0579994 2.88199 0)
(-0.00558349 2.69545 0)
(-0.0130975 2.98512 6.06515e-19)
(-0.0184021 2.89561 0)
(-0.0154367 2.98804 -1.91679e-18)
(-0.0135001 2.92522 6.6181e-19)
(-0.00677592 1.81261 0)
(-0.00486119 1.80777 0)
(-0.00183572 1.64905 -3.21406e-22)
(0.000201826 1.6278 0)
(-0.00509796 1.52563 0)
(0.935906 -6.0649e-05 0)
(0.874864 0.000857562 0)
(0.858359 0.0041422 0)
(0.939305 -0.0032259 0)
(0.881816 -0.00360475 0)
(0.482558 1.09124 2.46787e-20)
(0.535554 1.1549 0)
(0.337628 0.825595 4.40189e-21)
(0.276693 0.69302 0)
(0.956703 1.08298 -2.75276e-19)
(1.0749 0.89892 5.70769e-19)
(0.400724 1.3319 0)
(0.580301 1.32861 0)
(0.493592 1.30179 0)
(0.0993883 0.0669836 -9.57491e-20)
(0.566351 0.284254 0)
(0.555546 0.190875 1.13499e-19)
(1.0448 0.945438 0)
(1.11497 0.791106 0)
(1.14118 0.738658 -4.99281e-19)
(1.17464 0.630291 0)
(1.22753 0.415379 6.12052e-20)
(0.949976 -0.00527254 0)
(0.958556 -0.00928524 0)
(0.89825 -0.00666251 0)
(0.984452 -0.00877214 0)
(0.975503 -0.00791821 0)
(0.939131 -0.00595857 0)
(1.00017 0.00229283 0)
(1.00074 0.00138626 0)
(0.999941 0.000766481 0)
(0.0278657 1.70828 2.94261e-19)
(0.0739007 1.54813 0)
(0.0148664 1.73338 4.86713e-19)
(0.0237751 1.59755 -4.14482e-19)
(0.0529943 1.27885 -4.64649e-19)
(-0.0302773 1.3412 0)
(0.0643216 1.23549 0)
(-0.003111 1.50309 0)
(0.0128634 1.34843 0)
(-0.00235452 1.67932 -1.18607e-21)
(-0.00378331 1.58501 0)
(0.000888104 1.68311 -5.73104e-20)
(0.000490976 1.58328 1.10025e-19)
(-0.00322905 1.52405 0)
(-0.00275129 1.53366 0)
(0.00926994 1.36737 0)
(-0.0185146 1.58129 0)
(-0.0118075 1.44009 0)
(0.974563 0.013781 0)
(0.924392 0.00456682 0)
(0.958183 0.0072092 0)
(0.897254 0.00170382 0)
(0.849463 -0.0060085 0)
(0.925849 0.000306807 0)
(0.919007 0.00809643 0)
(0.847246 -0.000198803 0)
(0.00606387 3.06455 -6.13878e-21)
(0.0161949 3.05816 0)
(0.0147204 2.9692 0)
(0.00854522 2.87635 0)
(0.927043 3.99211 0)
(1.24129 3.3178 1.01318e-18)
(0.0718476 3.08613 0)
(-0.0259591 2.91278 0)
(-0.00852541 1.7942 0)
(-0.00931888 1.78579 0)
(-0.0063598 1.78844 0)
(-0.000695415 1.7912 5.21029e-21)
(-0.00650702 1.78465 0)
(-2.855e-07 1.78422 0)
(-0.00421019 1.55536 2.97572e-21)
(-0.00495589 1.67083 3.42619e-20)
(-0.00413516 1.66037 2.6077e-20)
(-0.00279426 1.54469 0)
(0.689566 0.131544 2.88641e-19)
(0.65368 0.0443601 -2.80387e-19)
(0.236175 1.34322 0)
(0.297621 0.891943 -2.57945e-19)
(0.169298 1.44712 -7.69132e-19)
(0.216779 1.25199 7.67407e-19)
(0.899309 0.00999229 0)
(0.966822 0.0135549 0)
(0.976229 0.0130431 0)
(0.923498 0.01054 0)
(-0.0165468 1.59872 0)
(-0.0119933 1.60928 0)
(-0.00961456 1.47051 0)
(0.447306 0.343902 3.83867e-19)
(0.365877 0.321863 -4.67043e-19)
(0.38389 0.244651 0)
(1.14297 0.0839114 -2.798e-21)
(1.12794 0.0388537 0)
(1.05979 0.0328167 0)
(0.975852 0.00309326 0)
(0.710493 0.085123 0)
(0.732782 0.055505 -1.2417e-18)
(0.660784 0.0122025 4.75018e-19)
(0.0100246 2.98265 4.32435e-19)
(-0.0320355 2.86821 4.81681e-20)
(0.00395588 3.05016 -1.3247e-20)
(0.0198585 3.04359 4.76614e-19)
(-0.0150708 2.9965 2.19873e-20)
(-0.0129794 2.94937 -8.90062e-23)
(-0.0173149 3.01201 -4.16346e-19)
(0.0147648 3.02411 3.01011e-19)
(0.00725139 3.03675 -4.71128e-19)
(0.953453 0.0072075 0)
(0.946542 0.00517743 0)
(0.882507 0.0038093 0)
(0.953751 0.0124592 0)
(0.937497 0.0123956 0)
(0.875247 0.00873097 0)
(0.926669 -0.00190357 0)
(0.922791 0.0034538 0)
(0.849569 -0.00501109 0)
(0.694301 1.39151 3.19152e-19)
(0.735596 1.50799 0)
(0.213191 0.41144 3.07453e-20)
(0.174199 0.534516 2.43025e-19)
(0.253729 0.649246 -1.15871e-19)
(0.21081 0.55134 2.19147e-19)
(0.316459 0.626179 5.60185e-19)
(0.113894 0.116087 1.98578e-19)
(0.608937 0.226151 4.26348e-19)
(0.587405 0.249451 1.04224e-19)
(0.562715 0.160805 2.17479e-19)
(1.2154 0.469824 2.90534e-19)
(1.23224 0.262845 3.04597e-19)
(0.00468497 1.73811 1.90876e-19)
(0.00879141 1.607 0)
(1.01443 0.0240014 0)
(0.987754 0.0140374 0)
(0.944714 -0.00263821 0)
(0.0109425 3.07503 0)
(0.0202088 2.94414 8.19938e-19)
(0.0166247 2.95656 0)
(0.00602537 2.85065 -8.1344e-19)
(0.00592448 3.0919 1.94744e-19)
(0.00731054 3.08184 0)
(0.770202 1.81821 -2.33954e-19)
(1.24647 2.51174 6.40066e-19)
(0.755276 1.96319 -1.4805e-18)
(0.0214471 2.98606 -3.16934e-19)
(0.0374538 3.00972 0)
(-0.0317203 2.8835 0)
(-0.00433669 1.67124 -7.09129e-21)
(-0.00571157 1.677 -7.79498e-20)
(-0.00444046 1.57279 -5.15019e-21)
(0.32032 1.23629 7.57977e-19)
(0.274131 0.65277 -5.10143e-19)
(0.0522188 1.64987 4.98608e-19)
(0.0916235 1.54843 -6.14847e-19)
(0.12268 1.42665 7.92835e-20)
(0.00549287 3.11863 -1.0269e-18)
(0.0117244 3.11909 1.11908e-18)
(-0.00866263 2.98098 5.28526e-19)
(-0.00361084 2.978 -4.68166e-19)
(-0.021491 2.88192 -5.38295e-19)
(0.0086091 3.09956 -1.42747e-18)
(0.00205027 3.10492 1.42874e-18)
(0.189927 0.542529 0)
(0.0872725 0.510414 -4.54011e-19)
(0.147572 0.186078 1.86431e-19)
(0.350135 0.772987 6.11467e-19)
(0.200274 0.205825 -9.29571e-19)
(1.22541 0.17103 -5.3496e-20)
(1.22916 0.313444 0)
(1.21295 0.119577 1.18913e-19)
(-0.00960298 1.70562 -1.52828e-21)
(-0.0075008 1.71913 0)
(-0.000851085 1.59567 0)
(0.367715 1.11507 -2.46533e-19)
(0.373464 0.981754 -5.06632e-19)
(0.201844 0.389205 8.77536e-19)
(1.00562 -0.0107832 0)
(1.00765 -0.00809119 2.00826e-19)
(-0.00645052 1.80313 0)
(-0.0118529 1.81005 0)
(1.00262 0.00376121 1.91992e-21)
(1.00249 0.00866447 4.12849e-19)
(-0.000671737 1.7948 -6.79851e-21)
(-0.00135342 1.79479 0)
(0.0407244 3.18626 1.20521e-19)
(0.40183 3.50794 0)
(1.1001 0.642658 6.11088e-20)
(1.01268 0.0131681 -2.54699e-21)
(1.01671 -0.0209063 0)
(1.0016 0.000425275 1.52123e-22)
(-0.111339 1.58706 0)
(0.0186546 1.98006 0)
(-0.0162975 1.78121 0)
(-0.0188665 1.83675 8.35361e-20)
(-0.00377756 1.81818 4.28381e-20)
(1.00387 0.0115538 2.36865e-21)
(1.0455 0.0139078 0)
(1.07347 0.0223799 0)
(-0.0106775 1.78638 0)
(-0.00735209 1.80583 0)
(-0.0157333 1.79574 0)
(0.149331 1.23028 -3.86549e-19)
(1.01123 -0.00937899 0)
(1.01016 -0.0129803 0)
(1.0026 0.000775544 2.5434e-19)
(1.00617 -0.00543185 -3.02837e-19)
(1.00088 -0.000850392 0)
(-0.0124556 1.78728 0)
(-0.00852444 1.79682 0)
(-0.00801621 1.79347 0)
(-0.012389 1.79841 0)
(-0.0087899 1.79511 0)
(-0.0112931 1.79805 0)
(1.02307 0.00899909 0)
(1.02366 0.00556969 -1.08081e-21)
(0.786379 1.24582 5.1462e-19)
(1.00231 0.000480093 -2.52961e-19)
(1.0036 0.00546671 3.06858e-19)
(1.00124 0.00195436 0)
(1.01025 0.0100115 2.49178e-19)
(1.00801 0.00873781 -3.06768e-19)
(1.00652 0.0145939 0)
(-0.00702088 1.80597 0)
(-0.00517257 1.80134 1.35108e-20)
(-0.00592519 1.80089 -9.22015e-21)
(1.18017 0.260165 -5.17192e-20)
(1.11658 0.0783374 0)
(0.0566233 3.0785 -5.34418e-19)
(0.070067 2.84983 -4.28768e-20)
(0.14948 3.19949 8.17162e-19)
(0.142417 3.22834 -7.4023e-21)
(0.142419 3.24626 0)
(0.0218119 3.1392 1.16716e-19)
(0.0821804 3.16304 5.21972e-19)
(0.0746599 3.19114 -2.25463e-19)
(0.0263689 3.12818 0)
(0.710222 0.337791 0)
(0.616274 0.393051 0)
(1.0813 0.670666 -2.38855e-19)
(1.07261 0.808876 3.74821e-19)
(1.12993 0.559707 0)
(1.1622 0.50756 0)
(1.01554 0.013153 -4.6354e-19)
(1.01343 0.0148099 5.75139e-19)
(1.01578 -0.0214604 0)
(1.01256 -0.0195074 0)
(1.00725 0.00198716 0)
(1.01081 0.00260555 0)
(1.00413 0.00304309 0)
(1.01031 0.00704252 0)
(1.00665 0.00578612 0)
(1.00567 0.00477327 0)
(-0.0936394 1.60033 0)
(-0.0662599 1.64608 0)
(-0.133287 1.55 0)
(-0.0851691 1.48733 0)
(0.0237259 1.99506 0)
(0.0926268 1.9809 -3.17367e-19)
(0.00847331 1.97389 0)
(-0.000689061 1.93758 1.54716e-19)
(-0.0243333 1.87958 -1.47514e-19)
(-0.0176661 1.78058 0)
(-0.0206913 1.78058 0)
(-0.0176028 1.77828 0)
(-0.0119783 1.75695 0)
(-0.03385 1.82066 -4.34941e-20)
(-0.00635069 1.82253 5.90893e-20)
(-0.0120784 1.83763 7.68194e-20)
(-0.00117219 1.82853 0)
(-0.00865006 1.82024 -9.43987e-20)
(-0.00949026 1.81613 -5.32564e-20)
(-0.0261407 1.817 3.39716e-20)
(-0.0165085 1.81941 -7.56187e-20)
(-0.0135173 1.82859 -9.15261e-20)
(1.01061 0.0166725 4.53719e-19)
(1.00938 0.0034213 -5.67228e-19)
(1.00528 0.0201951 -4.71212e-19)
(0.991575 0.0153195 5.956e-19)
(1.03879 0.0165176 0)
(1.04012 0.0106772 0)
(1.06039 0.0379088 0)
(1.04592 0.0217991 0)
(1.05932 0.012836 0)
(1.10287 0.0686469 0)
(1.0788 0.0470213 0)
(1.09272 0.0366275 0)
(-0.00700322 1.79562 -1.60767e-21)
(-0.0105961 1.78577 0)
(-0.00902625 1.78779 0)
(-0.00703724 1.80832 1.49594e-20)
(-0.00700812 1.80852 -6.93237e-22)
(-0.0145075 1.78438 1.59385e-20)
(-0.0132139 1.78745 -1.63752e-20)
(-0.0138945 1.79374 0)
(-0.0113894 1.79459 0)
(-0.0120916 1.79532 0)
(-0.0162366 1.79432 0)
(-0.0170929 1.79527 0)
(0.340448 1.22467 8.41927e-19)
(0.391496 1.32407 3.22994e-19)
(0.511544 2.32867 -1.78916e-19)
(0.228422 2.13884 4.88232e-19)
(0.117542 2.42867 -1.03061e-19)
(1.0179 -0.0158558 0)
(1.01612 -0.0101797 0)
(1.01492 -0.0195925 0)
(1.00879 -0.00130747 0)
(1.00483 -0.00181242 0)
(1.0069 -0.00454978 0)
(1.01033 -0.00370141 0)
(1.01203 -0.00650228 0)
(1.02378 0.00801839 4.46174e-19)
(1.01602 0.0162617 -5.5283e-19)
(1.02462 0.00254804 -4.46116e-19)
(1.02132 0.00218747 5.45773e-19)
(0.754133 1.2644 0)
(0.655615 1.34435 6.30654e-19)
(0.874147 1.17642 3.64178e-19)
(0.907937 1.14982 -4.84924e-19)
(1.1126 2.60017 -5.19588e-19)
(0.824753 0.100418 2.96368e-19)
(1.11805 0.0914056 0)
(1.15824 0.171911 4.82565e-20)
(1.15061 0.149332 2.05897e-21)
(0.966677 0.129466 0)
(0.153138 2.97022 1.2568e-19)
(0.12948 2.87663 -6.76357e-19)
(0.0412827 2.34806 4.95484e-19)
(0.117528 0.139634 -2.04098e-19)
(0.346618 3.43718 -4.41678e-19)
(0.200663 3.32621 0)
(0.24231 3.37293 5.75201e-19)
(0.262041 3.04306 -7.32771e-19)
(0.354194 3.20387 0)
(0.00833246 3.12031 2.73928e-20)
(0.0195012 3.1294 -3.47028e-19)
(0.0172219 3.12527 5.10796e-19)
(0.0390693 3.13983 0)
(0.0374296 3.15235 0)
(1.19139 2.61346 0)
(0.509163 0.827842 -2.25227e-19)
(1.01166 0.981106 -2.00799e-19)
(0.963609 1.06397 0)
(0.813931 0.953696 5.85133e-20)
(1.03631 0.867305 3.23749e-20)
(0.40604 0.480463 -5.51744e-19)
(0.735865 0.328149 -2.31615e-20)
(0.730084 0.280525 2.26354e-19)
(0.614667 0.433923 1.80026e-20)
(0.556028 0.428011 -7.41422e-19)
(0.708748 0.366337 0)
(0.689088 0.435683 3.75013e-19)
(0.701758 0.433706 0)
(0.659088 0.413008 0)
(0.673915 0.356915 0)
(0.733187 0.602902 1.34694e-19)
(1.16849 0.269284 2.09553e-20)
(1.16881 0.402379 0)
(1.18735 0.369376 0)
(0.78072 0.213535 3.35967e-19)
(0.778831 0.533536 -1.87954e-19)
(0.688271 0.510869 3.05553e-19)
(0.883188 0.400866 -2.89678e-19)
(1.01776 0.0173969 2.97504e-19)
(1.0169 0.0152939 -3.13588e-19)
(1.01242 0.0217317 0)
(1.02034 0.00517248 0)
(1.01399 -0.0145666 -2.82292e-19)
(1.00756 -0.00987211 2.79642e-19)
(1.03357 0.00405243 0)
(1.03008 0.0043792 0)
(1.01238 0.004135 0)
(1.01518 0.00962776 0)
(1.02224 0.0021098 0)
(1.01671 0.00116205 0)
(-0.0524674 1.67761 0)
(-0.0376742 1.69564 0)
(-0.221677 1.56212 1.13951e-19)
(0.0797117 1.31914 1.90511e-19)
(-0.086286 1.43011 3.67267e-19)
(0.00375827 1.33883 -6.14743e-19)
(-0.217068 1.53154 0)
(-0.273525 1.94652 4.82528e-20)
(-0.247669 1.93946 0)
(-0.0562421 2.44678 1.4635e-19)
(-0.0524691 2.44562 2.82973e-19)
(-0.308649 1.95379 -4.28745e-20)
(-0.0927657 1.3494 1.90602e-19)
(-0.224589 1.50444 -1.51579e-19)
(-0.112168 1.34314 5.58112e-19)
(-0.25583 2.0252 0)
(-0.214994 2.05826 -3.54874e-19)
(-0.0693632 1.85094 -3.86146e-20)
(-0.0230962 1.89194 0)
(-0.0519975 1.87785 1.55525e-19)
(-0.0616587 1.86359 0)
(-0.00818251 1.92721 -1.68547e-19)
(-0.0107559 1.91248 0)
(-0.0257495 1.7973 -3.44826e-20)
(-0.0316583 1.80317 0)
(-0.0380441 1.78242 0)
(-0.031468 1.79054 3.86569e-20)
(-0.0300419 1.84572 -3.76704e-21)
(-0.0283141 1.87133 1.74956e-19)
(-0.0246581 1.85866 1.18257e-21)
(-0.0179639 1.80526 3.15771e-20)
(-0.0210478 1.80415 1.88297e-20)
(-0.0241835 1.78204 0)
(-0.0239415 1.78269 0)
(-0.0641696 1.82414 9.04201e-20)
(-0.0543612 1.78233 6.09183e-20)
(-0.0533218 1.80062 -8.68812e-20)
(-0.0876985 1.83762 0)
(-0.0123199 1.7993 -5.14057e-20)
(-0.0109452 1.80859 2.42177e-20)
(-0.0109956 1.80782 -7.87867e-21)
(-0.0159988 1.80591 -3.83923e-20)
(-0.0126734 1.81192 -1.23427e-20)
(-0.014006 1.81449 6.32772e-20)
(1.02125 0.0027544 -2.88587e-19)
(1.0156 0.00956497 2.97247e-19)
(1.01626 0.00358023 0)
(0.995798 0.0459715 4.21063e-19)
(0.990959 0.0320719 -4.99757e-19)
(0.963091 0.0252113 5.78496e-19)
(0.992311 0.0830946 -5.65969e-20)
(1.02521 0.0118966 0)
(1.03221 0.0110555 2.59571e-19)
(1.03105 0.00824804 -2.57307e-19)
(1.03243 0.0414501 -1.41156e-20)
(1.03307 0.0265684 1.23723e-19)
(1.02394 0.0503204 0)
(1.01833 0.0434304 -4.63634e-20)
(1.01642 0.0220427 0)
(1.01736 0.0186606 0)
(1.03325 0.00601619 0)
(1.02691 0.00347427 0)
(1.02338 0.0223052 9.52451e-20)
(1.02632 0.0155569 -2.15614e-19)
(1.02441 0.0303414 -9.73431e-20)
(1.02394 0.0314289 -1.12706e-19)
(1.02172 0.0494563 1.98842e-19)
(1.05879 0.0473687 0)
(1.04769 0.0874611 0)
(-0.0127766 1.79908 -2.16416e-20)
(-0.0120048 1.79098 -1.82599e-21)
(-0.0132782 1.7896 0)
(-0.00957651 1.80184 2.29038e-20)
(-0.00848451 1.79797 3.26823e-21)
(-0.00816491 1.80013 -3.59999e-21)
(-0.010173 1.81533 4.71932e-20)
(-0.010453 1.81117 -2.82719e-21)
(-0.0117436 1.8106 1.3415e-20)
(-0.00814801 1.81237 -2.36211e-20)
(-0.00940029 1.81239 2.77121e-20)
(-0.0158202 1.7861 4.87222e-22)
(-0.0159872 1.7858 2.37484e-20)
(0.305473 1.09706 -4.67746e-19)
(0.181839 1.44108 -7.35572e-19)
(0.645221 1.33743 -6.13385e-19)
(0.520152 1.32506 -3.03031e-19)
(0.516694 1.37541 0)
(0.573806 2.34479 1.40258e-19)
(0.654267 2.34587 2.33912e-19)
(0.255235 2.21506 1.15683e-19)
(0.166718 2.5021 -2.45072e-19)
(0.221338 2.51652 2.34752e-19)
(0.47581 2.33004 0)
(0.370388 2.211 -4.16045e-19)
(0.0582081 2.05805 8.06151e-19)
(0.167453 2.14747 -7.74839e-20)
(0.192137 2.01582 -1.08668e-18)
(0.907464 2.36931 8.95789e-20)
(0.86148 2.40057 0)
(1.00976 -0.00185905 1.00081e-20)
(1.01307 -0.00790332 -8.32178e-21)
(1.01504 -0.0108017 -1.46644e-19)
(1.01713 -0.0120912 1.49086e-19)
(1.01519 -0.00410394 0)
(0.675466 1.24864 0)
(0.663948 1.18555 0)
(0.762755 1.0528 0)
(0.6462 1.14578 0)
(1.143 2.61704 6.59248e-20)
(1.02772 2.325 0)
(0.818409 2.16701 7.18516e-22)
(0.929298 2.50769 0)
(0.995769 2.55443 2.88474e-20)
(1.00257 2.49096 -1.96059e-20)
(0.831755 0.146284 0)
(0.798594 0.166382 8.51895e-20)
(0.89507 0.120773 4.38505e-19)
(0.856997 0.10361 -1.76119e-19)
(0.857578 0.0680323 -5.25419e-19)
(1.01761 0.217043 -2.67936e-19)
(0.94923 0.252543 -1.63973e-20)
(0.89973 0.246593 3.84061e-19)
(0.965319 0.198403 2.98048e-19)
(0.920006 0.163621 -5.5184e-19)
(0.8887 0.173103 7.07258e-20)
(0.918224 0.228779 -1.38495e-19)
(0.896355 0.19261 0)
(0.97025 0.167268 2.6556e-19)
(1.00003 0.170156 0)
(0.995702 0.19675 0)
(1.04801 0.0945297 8.83924e-20)
(1.01613 0.155614 -1.19537e-20)
(1.00997 0.217879 -4.84155e-20)
(1.04535 0.187518 0)
(1.01009 0.024678 2.28468e-19)
(1.0134 0.042596 2.71214e-19)
(1.01459 0.0292181 -2.2646e-19)
(1.00795 0.0469732 -1.82399e-19)
(0.998903 0.0494655 -2.97947e-19)
(0.971963 0.130486 0)
(0.989023 0.0827093 0)
(0.965188 0.0471733 -2.09285e-19)
(0.9272 0.0545918 8.63281e-20)
(0.996046 0.077712 2.58342e-19)
(1.01195 0.0929032 -2.66788e-19)
(1.02259 0.128723 2.42526e-19)
(1.00052 0.119812 0)
(1.02323 0.0819501 0)
(1.01202 0.0690415 -1.11547e-19)
(1.0101 0.0715371 -2.08092e-19)
(0.507131 1.12436 -6.72082e-20)
(0.557573 1.56724 1.44548e-19)
(1.11085 2.78874 1.1613e-19)
(1.20275 3.11299 -7.31119e-20)
(1.21318 2.73346 5.44866e-19)
(1.25143 2.71998 -3.3018e-19)
(1.1713 2.33163 -5.87227e-21)
(1.18395 3.01444 2.049e-19)
(1.19742 2.97625 -2.30731e-19)
(1.1994 3.26468 -2.6979e-19)
(1.36109 2.99069 3.74128e-19)
(1.35735 2.90147 0)
(0.508304 0.834262 -1.14922e-20)
(0.162382 1.29432 3.68217e-19)
(0.510443 0.55288 3.63151e-19)
(0.33444 0.323173 3.97512e-19)
(0.554336 0.45475 4.14136e-19)
(0.540054 0.502031 -6.55102e-19)
(0.540621 0.530645 5.35515e-19)
(0.514654 0.478425 -2.16317e-19)
(0.484041 0.436698 4.97116e-19)
(0.77952 0.259566 -1.86751e-19)
(0.75007 0.293233 0)
(0.748528 0.257051 1.20404e-20)
(0.679758 0.519916 1.91322e-19)
(0.65896 0.487238 -7.09097e-19)
(0.599962 0.50135 2.01788e-20)
(0.61953 0.478507 0)
(0.627564 0.722404 1.45926e-19)
(0.772373 0.776631 5.87083e-20)
(0.704828 0.837131 -7.67044e-20)
(0.810966 0.804469 -2.0593e-20)
(0.871186 0.833262 1.42193e-20)
(0.877489 0.845557 -1.45481e-20)
(0.782356 0.620464 -2.33135e-19)
(0.862143 0.690585 1.91466e-20)
(0.928267 0.695667 0)
(0.917767 0.664677 -2.10772e-20)
(0.969289 0.290118 6.65586e-20)
(1.06627 0.270529 1.89619e-20)
(1.00384 0.249881 1.09335e-19)
(0.942292 0.325946 -1.50609e-19)
(0.98224 0.399814 0)
(1.04936 0.381631 0)
(0.873423 0.329999 6.06328e-21)
(0.844287 0.279255 0)
(0.842746 0.245101 2.03886e-19)
(0.889552 0.252104 -3.97062e-21)
(0.874128 0.405352 7.94358e-19)
(0.822843 0.46966 2.02332e-19)
(0.826581 0.434023 -2.52847e-19)
(0.767291 0.424041 2.71591e-19)
(0.752709 0.427746 1.8584e-19)
(0.743852 0.42164 -1.81835e-19)
(1.02476 -0.00188168 2.41895e-19)
(1.02991 -0.00578605 0)
(1.02838 -0.0103645 1.60882e-19)
(1.02333 -0.011547 -3.58876e-19)
(1.03668 0.00183436 1.76121e-19)
(1.03069 0.00820978 -3.71942e-19)
(1.02865 0.00978881 0)
(1.02199 0.0120721 -7.61428e-20)
(1.02578 0.00666444 1.93273e-19)
(1.01912 0.0127143 -9.88756e-20)
(1.02115 0.0142918 7.2022e-20)
(-0.0246126 1.7535 0)
(-0.0448773 1.77553 0)
(-0.0353311 1.72126 0)
(-0.0225194 1.72824 0)
(-0.145719 1.7209 -4.92968e-20)
(-0.144698 1.64293 7.99993e-21)
(-0.21247 1.90647 -1.50527e-20)
(-0.272822 1.7136 -8.97478e-20)
(-0.0777248 1.78205 -4.18658e-20)
(-0.0891873 1.77783 2.94143e-20)
(-0.111563 1.72049 2.69311e-21)
(-0.0931581 1.74148 1.53942e-20)
(-0.0641849 1.75565 1.2317e-21)
(-0.0597904 1.766 -3.84397e-21)
(-0.0655794 1.91703 -1.64765e-19)
(-0.0629135 1.96383 0)
(-0.149115 1.98248 8.67351e-20)
(-0.191144 1.92538 4.43774e-20)
(-0.200556 2.21602 -2.03658e-20)
(-0.0472455 2.22822 0)
(-0.0654168 2.27215 -3.05236e-19)
(-0.0513884 2.36696 2.23867e-19)
(-0.170696 2.11869 -1.41102e-19)
(-0.156198 2.05297 5.39308e-20)
(-0.0870003 2.10795 0)
(-0.0527166 1.81834 -1.15879e-19)
(-0.0430352 1.82447 -1.60336e-19)
(-0.044191 1.82259 0)
(-0.05076 1.84287 -5.17937e-21)
(-0.0615227 1.84031 6.1339e-20)
(-0.01983 1.79429 5.41334e-21)
(-0.021802 1.79126 -8.86462e-20)
(-0.0251818 1.79297 1.90656e-20)
(-0.0218871 1.79582 3.58193e-20)
(-0.0198035 1.79816 0)
(-0.0251711 1.79149 0)
(-0.0221388 1.79054 2.79874e-20)
(-0.0237882 1.78884 -8.15894e-21)
(-0.0261015 1.78986 0)
(-0.0252283 1.78512 2.15557e-20)
(-0.0215752 1.7893 -4.2019e-20)
(1.02754 0.0177883 0)
(1.0292 0.0164244 -2.30951e-20)
(1.02841 0.0157987 -1.73532e-19)
(1.02756 0.0179376 0)
(1.02756 0.0202225 0)
(1.03056 0.0101503 -4.72373e-21)
(1.03092 0.0102816 2.86025e-19)
(1.02686 0.00860461 3.52365e-19)
(1.02615 0.00572378 0)
(1.02099 0.00516271 0)
(1.02401 0.0148394 1.75532e-19)
(1.02001 0.0127039 0)
(1.0211 0.0107847 0)
(-0.0138046 1.80031 0)
(-0.0160354 1.78597 1.90717e-21)
(-0.016095 1.79192 1.22539e-20)
(-0.0222511 1.78987 0)
(-0.0179284 1.7878 1.6824e-20)
(-0.0158534 1.78756 -7.87808e-21)
(-0.0179583 1.78728 0)
(0.670353 1.93979 0)
(0.275586 1.51405 1.20001e-18)
(0.273009 2.0911 0)
(0.55253 1.11095 -1.32756e-18)
(0.52384 1.14757 0)
(0.504997 1.13126 5.6883e-19)
(1.03809 2.67455 -2.79014e-21)
(0.932458 2.38417 -1.09524e-19)
(0.823796 2.0779 4.26507e-19)
(0.874405 2.38839 9.19814e-20)
(0.935297 2.53695 0)
(0.970359 2.49647 0)
(0.886124 2.3678 0)
(0.880175 2.35275 -3.47752e-19)
(0.684846 2.60757 5.21139e-20)
(0.931653 2.51578 6.90688e-21)
(0.942388 2.49398 -5.21228e-21)
(0.674182 2.39741 0)
(0.805762 2.41098 0)
(0.765421 2.38633 -2.21819e-19)
(0.876753 2.58875 0)
(0.579747 1.10018 0)
(0.466479 0.899473 2.6074e-20)
(0.523174 0.935721 2.79206e-22)
(0.467771 1.04482 0)
(0.491847 0.993415 -4.04938e-20)
(0.727576 0.861545 1.3961e-20)
(0.772074 0.981815 0)
(0.747432 0.957261 -6.58285e-20)
(0.627763 1.00516 0)
(0.625455 0.919644 0)
(1.12857 2.77745 3.37936e-20)
(1.10008 2.84978 7.98235e-20)
(0.868004 2.38608 -2.0257e-19)
(0.829579 2.36557 9.89339e-21)
(1.09319 2.73519 0)
(1.06079 2.69328 -1.3832e-20)
(1.04699 2.45405 -8.75824e-20)
(0.933055 2.16169 -2.55514e-20)
(0.588566 1.4476 0)
(0.521418 1.12924 5.91883e-20)
(0.6006 1.22055 0)
(0.83588 0.211 0)
(0.808334 0.182785 0)
(0.774482 0.190893 0)
(0.834674 0.210881 -3.22405e-19)
(0.792273 0.21383 1.96302e-19)
(0.927976 0.0521381 -1.71466e-19)
(0.936376 0.0998217 0)
(0.916588 0.100265 8.18321e-20)
(0.884354 0.0725259 3.3462e-19)
(0.886173 0.0589544 -2.06409e-19)
(1.15642 3.38737 -9.83965e-19)
(1.19977 3.30892 0)
(1.16058 3.40982 -1.9265e-18)
(0.653386 3.56877 1.6571e-18)
(0.885881 3.13676 4.06269e-19)
(0.500913 0.843033 1.96247e-19)
(0.423366 0.828557 0)
(0.352415 0.567853 -8.08552e-20)
(0.412908 0.679888 3.65067e-19)
(0.508045 0.548396 -1.12466e-19)
(0.495286 0.564466 1.25841e-19)
(0.614179 0.539739 2.70091e-19)
(0.632703 0.549449 0)
(0.583899 0.624162 0)
(0.546644 0.564236 0)
(0.914186 0.578667 -4.56493e-20)
(0.830191 0.518153 -1.95514e-19)
(0.861359 0.559209 9.71564e-20)
(0.895814 0.495883 -1.42809e-19)
(1.00756 0.465622 0)
(1.00876 0.548163 -9.19897e-21)
(0.809307 0.368384 -4.05349e-19)
(0.818104 0.351367 -4.71392e-19)
(0.798736 0.377657 3.16949e-19)
(0.802164 0.336743 -3.59332e-19)
(0.834752 0.291846 -2.59407e-19)
(0.812745 0.293215 3.22466e-19)
(1.03769 0.00316658 -1.84517e-19)
(1.0381 0.00400837 3.74856e-19)
(1.02736 0.00395353 2.30397e-19)
(1.03189 0.00863516 -2.74152e-19)
(1.0285 0.0168709 0)
(1.03215 0.0121332 -4.49596e-19)
(-0.0855488 1.83639 2.78967e-20)
(-0.0989899 1.84053 0)
(-0.126556 1.8719 1.26269e-19)
(-0.150735 1.91399 -1.05769e-19)
(-0.189675 1.88756 2.72588e-20)
(-0.155893 1.87159 0)
(-0.0170254 1.80269 0)
(-0.0231458 1.79435 -9.08187e-21)
(-0.0218203 1.79002 8.17958e-21)
(-0.0198975 1.78936 2.01596e-21)
(-0.0171398 1.79939 -1.64231e-20)
(-0.0161982 1.80198 1.04609e-20)
(0.711528 1.42645 5.22032e-19)
(0.758147 1.5362 -5.55035e-19)
(0.649977 1.21241 5.66257e-19)
(0.81796 1.42109 -4.14988e-20)
(0.680477 1.24085 0)
(0.629428 1.203 5.66648e-19)
(0.629965 1.27046 -5.41311e-19)
(0.622241 1.13944 -5.54939e-19)
(0.726358 1.19792 0)
(0.663356 1.25615 0)
(0.696175 2.59386 -7.75788e-20)
(0.705951 2.555 3.08007e-19)
(0.788154 2.60364 -2.1017e-19)
(0.590286 2.61161 -1.25407e-19)
(0.415714 2.73762 1.64458e-20)
(0.350647 2.70127 -1.72383e-19)
(0.956024 2.28921 -2.43962e-19)
(0.982293 2.33242 0)
(0.851236 2.06218 -2.8755e-19)
(1.03764 2.67288 0)
(1.01494 2.64985 0)
(0.626444 2.31522 2.89733e-19)
(1.02711 3.18811 4.94354e-19)
(0.906026 3.05649 -4.69095e-19)
(0.3114 0.968872 0)
(0.358165 0.842413 -1.40094e-19)
(0.497967 0.765766 -5.02681e-20)
(0.433654 2.06742 0)
(0.480633 2.8011 -2.82491e-19)
(0.448298 2.56324 0)
(0.637683 0.677978 -3.03189e-19)
(0.704401 0.680055 3.96272e-19)
(0.737266 0.621629 -3.8197e-19)
(0.602753 0.642423 -4.59698e-20)
(0.663373 0.596395 -1.90847e-19)
(0.987593 2.80074 -3.75508e-19)
(1.00834 2.85829 3.07461e-19)
(0.658407 2.23974 -3.52738e-20)
(0.581032 1.75091 -1.28402e-20)
(0.687512 1.98009 1.63912e-19)
(0.968139 2.50562 -4.65699e-20)
(0.970927 2.52438 -1.87959e-19)
(0.689906 1.9292 -8.03251e-21)
(0.432803 1.39699 -1.07126e-19)
)
;

boundaryField
{
    wall-4
    {
        type            noSlip;
    }
    velocity-inlet-5
    {
        type            fixedValue;
        value           uniform (1 0 0);
    }
    velocity-inlet-6
    {
        type            fixedValue;
        value           uniform (0 3 0);
    }
    pressure-outlet-7
    {
        type            zeroGradient;
    }
    wall-8
    {
        type            noSlip;
    }
    frontAndBackPlanes
    {
        type            empty;
    }
}


// ************************************************************************* //
