/*--------------------------------*- C++ -*----------------------------------*\
| =========                 |                                                 |
| \\      /  F ield         | OpenFOAM: The Open Source CFD Toolbox           |
|  \\    /   O peration     | Version:  4.0                                   |
|   \\  /    A nd           | Web:      www.OpenFOAM.org                      |
|    \\/     M anipulation  |                                                 |
\*---------------------------------------------------------------------------*/
FoamFile
{
    version     2.0;
    format      ascii;
    class       volScalarField;
    location    "45";
    object      p;
}
// * * * * * * * * * * * * * * * * * * * * * * * * * * * * * * * * * * * * * //

dimensions      [0 2 -2 0 0 0 0];

internalField   nonuniform List<scalar> 
918
(
0.565563
1.2124
0.00269017
0.564939
-0.0117766
1.17942
-0.490625
0.714182
0.54572
-0.087176
-0.0183865
0.542131
1.04018
0.807034
-1.1139
-0.00403548
0.667221
-0.369289
0.544776
-0.0295338
0.748596
0.552297
0.555327
0.545911
0.611182
0.784007
0.921396
0.0188782
0.004794
0.0017487
-0.0110355
-0.0378815
-0.0293584
1.06305
1.11415
1.13685
0.513853
0.341948
-0.356856
-0.423786
-0.416452
-0.534323
0.708209
0.707439
-0.179055
0.717052
0.723226
0.532863
0.545085
0.545993
0.547056
0.546015
0.547408
0.422688
-0.089827
-0.122139
-0.0664639
-0.058618
0.0747634
-0.0206516
-0.0221049
-0.0170912
-0.0180206
0.464061
0.537563
0.534651
0.54738
0.556523
1.15195
1.12386
1.15
1.06375
1.0802
1.01814
0.990762
0.826968
0.848841
0.793127
0.779328
-1.55075
-2.51092
-0.519222
-0.26595
-0.0108961
0.00317595
0.0139482
0.660535
0.659914
0.669147
0.678244
1.09355
-0.36791
-0.474184
0.544907
0.543707
0.55208
0.552776
0.548791
0.547883
-0.0276962
-0.0263885
-0.0266532
-0.0300857
-0.0294994
0.737606
0.735346
0.546448
0.543463
0.563206
0.584174
0.575906
0.291985
0.614523
0.627938
0.611297
0.774145
0.769196
0.777483
0.894994
0.859198
0.958292
0.981432
0.0156845
0.00165852
-0.0108358
-0.0161392
-0.014733
0.509754
0.502413
0.529028
0.517232
0.51969
0.257749
0.122903
0.427582
0.452741
-0.271544
-0.331901
-0.419532
-0.444577
-0.557205
0.613927
0.698749
0.69655
-0.195477
-0.12163
-0.251084
-0.0482676
-0.109072
0.523218
0.530163
0.5252
0.540653
0.535142
0.537096
0.549341
0.54642
0.547975
0.485062
0.608663
0.349145
0.314865
-0.228855
-0.140419
-0.231349
-0.0455952
-0.0396426
0.0889715
0.114918
0.0619263
0.0508768
-0.0334935
-0.025506
-0.0297402
-0.0175779
-0.021558
0.456958
0.44604
0.476541
0.48393
0.527303
0.528519
0.531994
0.53039
0.941467
0.963882
0.971458
0.945141
-3.51004
-6.30967
0.0621498
0.200142
-0.00567797
-0.00814923
0.0020897
-0.00423922
0.00150182
-0.000988593
0.0119456
0.00937418
0.0148178
0.0170943
0.650617
0.650667
1.01303
1.0151
0.992841
0.94375
0.53303
0.535135
0.54067
0.536534
-0.021611
-0.025162
-0.0247115
0.724896
0.731699
0.729697
0.254455
0.166806
0.341857
0.370176
0.642827
0.6313
0.641113
0.672804
0.710139
0.988862
1.00713
1.00532
1.01368
1.05764
1.07399
1.03946
0.489604
0.499364
0.494439
0.532202
0.529927
0.530852
0.526428
0.527882
0.525716
-0.0288156
-0.411991
0.502124
0.520504
0.501902
0.507389
0.693413
0.770681
0.679892
0.689166
0.687026
0.018709
-0.0389257
0.271081
0.237381
0.39779
0.433503
0.412831
0.912803
0.872968
0.923134
0.896361
0.857568
0.883613
-0.36363
-1.8741
-0.987307
0.553642
0.365924
0.454284
0.0331986
0.014869
0.0217701
1.00797
1.08452
0.664527
0.83434
0.84064
0.744834
0.773869
0.833483
0.76054
0.79447
0.827243
0.805057
0.570905
0.514552
0.525859
0.840538
0.897143
0.138822
0.0808485
0.036636
0.13396
0.190477
0.165164
1.04636
0.952921
1.02483
0.543215
0.543919
0.00403241
-0.00324679
0.548102
0.548151
-0.00884024
0.000906765
0.436592
-0.823272
0.12249
0.536607
0.52674
0.543731
-0.0693248
0.376918
-0.0196596
0.0720815
0.0131525
0.539901
0.474812
0.434857
0.00845958
-0.0124299
-0.0247769
-0.19891
0.540886
0.539194
0.543202
0.544169
0.544835
-0.00981444
-0.00395313
-0.00513215
-0.0259165
-0.0235197
-0.0293915
0.508077
0.526119
-0.154355
0.543345
0.545469
0.545294
0.538497
0.544153
0.542385
-0.00341231
-0.0104859
-0.0137308
0.2377
0.364011
0.680386
0.771281
0.650299
0.423601
0.185826
0.58128
0.645691
0.54984
0.705594
0.69402
0.710875
0.187929
0.0381606
0.196012
0.137732
0.534467
0.533156
0.524997
0.522024
0.5386
0.53671
0.541264
0.538259
0.541207
0.542601
-0.0278457
-0.0522968
-0.0654312
-0.131924
0.333016
0.593446
0.273604
0.30402
0.164099
-0.0147156
-0.0139526
-0.0179651
-0.0245069
0.0252074
-0.00174272
0.0662771
0.0669563
0.0351213
0.00864724
0.0169628
0.00385405
0.00865973
0.53313
0.531514
0.537853
0.546739
0.484231
0.48798
0.453535
0.473911
0.459363
0.399734
0.434083
0.409597
0.00286627
0.0124115
0.0044943
-0.00660053
-0.000941568
-0.0183735
-0.0150189
-0.0162528
-0.00958198
-0.0146755
-0.0207964
-0.0258513
-0.158607
-0.272757
0.999155
0.930034
0.140204
0.530072
0.536498
0.533277
0.538113
0.541237
0.542075
0.539813
0.536377
0.526591
0.528256
0.524845
0.525552
-0.0894984
-0.226406
-0.0555846
-0.126687
0.151779
0.63369
0.375793
0.313929
0.308342
0.53375
0.941223
0.731739
0.714054
0.732626
-0.329208
0.0659913
-0.262854
0.356428
0.179177
0.679462
0.727818
0.748534
0.697318
0.650199
-0.0984867
0.565374
-0.0512322
-0.0019027
0.196722
0.0799005
0.714435
0.677474
0.681542
0.700263
0.71832
0.683832
0.666695
0.661327
0.695772
0.699434
0.50805
0.26886
0.221814
0.183356
0.660456
0.545415
0.600711
0.512844
0.529526
0.532236
0.530836
0.512818
0.5203
0.515902
0.522081
0.525428
0.534314
0.534707
0.530067
0.532228
-0.032549
-0.0354321
-0.0106127
-0.12056
-0.110978
-0.171073
-0.0473192
0.0918834
0.0552213
0.248867
0.354893
0.0674577
-0.0461428
-0.0172865
0.0187255
0.193431
0.218958
0.096901
0.184088
0.173138
0.156766
0.258341
0.263448
-0.00289299
-0.00665828
-0.00783033
-0.0104878
0.0424842
0.113336
0.123179
0.0167021
0.0122027
-0.0121796
-0.0142809
0.00113987
-0.00351916
-0.000376955
0.035883
-0.0396726
-0.00706047
0.00781529
0.0185185
0.0147298
0.00972906
0.525652
0.527866
0.527527
0.535159
0.553048
0.569095
0.526251
0.506085
0.497024
0.500008
0.473499
0.483663
0.479538
0.492941
0.513526
0.522667
0.520247
0.522926
0.505703
0.507346
0.494316
0.497917
0.473388
0.45451
0.443004
-0.0303203
0.00749235
0.000606581
-0.0276272
0.00283485
-0.0104157
0.00624534
0.0228914
0.00916105
0.00540513
-0.00430711
-0.0131843
-0.0103984
-0.0627551
0.0208548
-0.171532
-0.206916
-0.276315
0.902299
1.02367
0.824984
0.599782
0.614609
0.85588
0.942461
0.56231
0.748857
0.772875
0.588672
0.855687
0.534878
0.534492
0.53209
0.531568
0.53279
0.00072719
0.103224
0.10941
0.166827
0.28328
0.396569
0.319304
0.195148
0.327708
0.331528
0.626933
0.640424
0.595177
0.618216
0.618832
0.439252
0.51536
0.568609
0.524666
0.5746
0.595586
0.552972
0.584413
0.534343
0.489753
0.48629
0.435539
0.456626
0.433463
0.415341
0.524764
0.50234
0.512767
0.502961
0.522528
0.546663
0.543441
0.57569
0.586731
0.5071
0.463736
0.473592
0.503446
0.463955
0.478564
0.494489
0.234868
0.134747
0.219605
-0.0691849
0.00842198
-0.00616932
-0.0534411
-0.00634613
0.278995
-0.416213
-0.39112
-1.02253
0.506319
0.971751
0.665897
0.639194
0.715271
0.695888
0.700802
0.721112
0.725654
0.650916
0.667949
0.671204
0.633112
0.656234
0.67848
0.675442
0.535484
0.402923
0.397796
0.351082
0.222578
0.259196
0.460912
0.382756
0.307752
0.309276
0.473698
0.360378
0.42914
0.466614
0.398003
0.352004
0.556933
0.62171
0.611878
0.586603
0.504508
0.519019
0.543173
0.578881
0.605323
0.636814
0.52174
0.52755
0.528804
0.526328
0.52354
0.526515
0.526667
0.529198
0.529962
0.532905
0.531921
-0.0199661
-0.00820556
-0.0220426
-0.0288238
0.001032
-0.00346033
0.0407607
0.0267
0.0117821
0.018226
-0.00842115
-0.0128467
-0.0075794
0.00178551
0.118112
0.131246
0.115222
0.0756338
0.262548
0.393352
0.464284
0.342189
0.235409
0.259374
0.281649
0.0104531
0.0372061
0.0242152
0.0636931
0.0555944
-0.0100891
-0.0141843
-0.0127959
-0.00630474
0.00421004
-0.0149644
-0.0215309
-0.0109931
-0.0161138
-0.0182893
-0.0233767
0.508293
0.50184
0.503354
0.497382
0.496125
0.510158
0.514397
0.516295
0.521653
0.523767
0.514152
0.519695
0.52336
0.00490212
-0.0191161
-0.0233025
-0.00706332
-0.0133608
-0.0123732
-0.0109261
0.129077
0.0585528
0.0630141
0.0176796
-0.110698
-0.0532136
0.494293
0.493036
0.488124
0.724166
0.574413
0.493757
0.590001
0.695269
0.279672
0.478479
0.311519
0.895133
0.788501
0.935056
0.549164
0.248365
0.407022
0.456653
0.264191
0.336995
0.337776
0.224713
0.257084
0.290783
0.392613
0.270211
0.245336
0.00257662
0.19074
0.306957
0.287911
0.416267
0.478667
0.266791
0.187828
0.142456
0.617533
0.635187
0.651154
0.624762
0.646932
0.58505
0.573278
0.591442
0.60125
0.596974
-0.749743
-0.4566
-1.40158
-0.717267
-0.265412
0.537434
0.502022
0.777757
0.66023
0.718449
0.702764
0.659561
0.626464
0.642922
0.672344
0.365312
0.477261
0.451834
0.456885
0.357632
0.289227
0.591286
0.585318
0.620601
0.64409
0.612522
0.644218
0.519488
0.519155
0.518736
0.515058
0.513355
0.515628
0.0795075
0.0485674
0.0832319
0.064036
0.0415078
0.0301314
0.0138231
0.00458489
-0.00449737
-0.00581459
0.0077081
0.0135569
0.172107
0.112612
0.0349213
0.0639827
0.0047098
-0.0621228
-0.0801126
0.0208517
0.114468
0.104888
0.411232
0.663189
0.483532
0.652032
0.491785
0.547583
0.478323
0.471022
0.497808
0.385332
0.464653
0.241819
-0.265124
-0.173004
0.794411
0.810342
0.593169
0.410828
0.179924
0.365424
0.558528
0.492035
0.530142
0.599671
0.589957
0.0231694
0.086606
0.356604
0.583892
0.241168
0.233109
0.227231
0.405012
0.326678
)
;

boundaryField
{
    wall-4
    {
        type            zeroGradient;
    }
    velocity-inlet-5
    {
        type            zeroGradient;
    }
    velocity-inlet-6
    {
        type            zeroGradient;
    }
    pressure-outlet-7
    {
        type            fixedValue;
        value           uniform 0;
    }
    wall-8
    {
        type            zeroGradient;
    }
    frontAndBackPlanes
    {
        type            empty;
    }
}


// ************************************************************************* //
