/*--------------------------------*- C++ -*----------------------------------*\
| =========                 |                                                 |
| \\      /  F ield         | OpenFOAM: The Open Source CFD Toolbox           |
|  \\    /   O peration     | Version:  4.0                                   |
|   \\  /    A nd           | Web:      www.OpenFOAM.org                      |
|    \\/     M anipulation  |                                                 |
\*---------------------------------------------------------------------------*/
FoamFile
{
    version     2.0;
    format      ascii;
    class       volVectorField;
    location    "45";
    object      U;
}
// * * * * * * * * * * * * * * * * * * * * * * * * * * * * * * * * * * * * * //

dimensions      [0 1 -1 0 0 0 0];

internalField   nonuniform List<vector> 
918
(
(0.985163 -0.000503256 0)
(0.00501107 2.96625 0)
(0.00528382 0.847911 0)
(0.979703 0.00214791 0)
(-0.0116711 2.05121 3.62582e-20)
(-0.00704251 2.94879 -2.52616e-18)
(0.816992 1.15478 4.32223e-19)
(0.243233 0.117921 -1.58717e-20)
(0.999907 -0.000283555 0)
(0.0613319 0.798023 0)
(0.0127895 0.606192 0)
(0.734737 -0.0167871 0)
(0.0110996 2.93035 0)
(0.00267419 2.79465 0)
(-0.0175091 3.15449 7.68541e-19)
(-0.0200336 1.90127 4.27786e-22)
(0.310264 0.0327639 1.04268e-18)
(0.18893 1.16668 3.03644e-19)
(0.962764 0.00501792 0)
(-0.0140427 0.54986 0)
(0.0441502 0.15844 -7.51557e-19)
(1.00198 -0.00497953 0)
(1.00022 -0.00979069 0)
(0.975728 -0.00644012 0)
(0.583617 -0.0384372 0)
(0.0154218 2.6401 0)
(-0.0148766 2.91 9.33569e-19)
(0.0090127 0.921483 0)
(0.000236233 1.1635 0)
(0.00734113 0.897991 0)
(-0.014365 2.61128 0)
(-0.000443777 2.10819 -2.89504e-20)
(-0.00946086 1.873 0)
(-0.020614 2.9876 -9.09728e-23)
(-0.0166912 3.0053 1.96339e-18)
(0.00210352 3.00019 0)
(0.87088 -0.00955304 0)
(0.404911 0.938373 1.85423e-19)
(0.795424 1.1724 -4.82865e-19)
(0.941479 1.01104 5.25131e-19)
(0.667463 1.26489 -9.95244e-20)
(0.667967 1.24951 5.7553e-19)
(0.281067 0.191359 1.54843e-20)
(0.257386 0.0908107 0)
(1.1336 0.549407 0)
(0.248154 0.18334 7.07304e-20)
(0.214384 0.117598 -7.3396e-20)
(0.919807 -0.00744719 0)
(1.00027 0.00015562 0)
(0.999909 0.000336943 0)
(1.00363 -0.00776833 0)
(1.00096 -0.00092333 0)
(1.00017 3.11127e-05 0)
(0.0767225 1.8151 -8.08558e-19)
(0.0306101 0.981461 0)
(0.0966937 0.865562 0)
(0.0129966 0.933656 0)
(0.0361909 0.731408 0)
(0.0139412 2.00338 0)
(0.00686798 0.834129 0)
(0.00855545 0.624982 0)
(0.00617733 0.822161 0)
(0.019045 0.591236 0)
(0.839247 -0.0158198 0)
(0.8454 0.0297428 0)
(0.767684 -0.00550618 0)
(0.814843 0.0392558 0)
(0.704174 -0.0191967 0)
(0.0146927 3.0004 9.37231e-19)
(0.0115102 3.00798 0)
(0.00612324 3.00279 0)
(0.0135425 2.99734 1.06471e-23)
(0.00797896 2.95847 -1.39296e-18)
(0.0144858 2.98204 0)
(0.0108237 2.90362 0)
(0.0248499 2.93066 2.14857e-24)
(0.00451951 2.82474 0)
(0.0306108 2.91617 0)
(-0.00549929 2.74544 0)
(0.307871 3.55066 0)
(-0.131771 3.63202 0)
(0.139419 3.24481 -7.1521e-19)
(-0.0126923 2.9806 0)
(-0.0239383 1.99967 0)
(-0.0076871 2.16237 -4.21917e-22)
(-0.012799 1.9074 -1.3136e-20)
(0.411897 0.143256 -3.60947e-19)
(0.317643 0.0180481 -3.48821e-19)
(0.38859 0.153948 -1.08635e-18)
(0.29261 0.0441606 -7.15239e-19)
(0.224177 0.965824 0)
(0.270551 1.3128 -3.61005e-19)
(0.365609 1.24662 6.02507e-19)
(0.987472 0.00855684 0)
(0.941916 0.00583617 0)
(1.0003 0.00057846 0)
(1.00286 0.00930606 0)
(1.00302 0.00846177 -2.78725e-18)
(0.991913 0.00969949 2.10484e-18)
(-0.00914096 0.804502 0)
(-0.00438157 0.546841 0)
(-0.0237476 0.977336 0)
(-0.00856778 0.823884 0)
(-0.00320983 0.543733 0)
(0.0727301 0.160518 2.3223e-19)
(0.132741 0.136016 0)
(0.993542 -0.00837885 0)
(0.95443 -0.00652238 0)
(0.760989 0.0465632 0)
(0.696615 0.0571762 0)
(0.664184 -0.0313845 0)
(0.964069 -0.00812664 0)
(0.612835 0.0762296 0)
(0.444606 -0.0109585 1.55295e-18)
(-0.0369519 2.86321 7.00472e-19)
(0.041858 2.90951 0)
(0.0540439 2.88535 0)
(-0.00431243 2.69961 0)
(-0.0133726 2.98512 8.85712e-19)
(-0.0179659 2.89508 0)
(-0.0154139 2.98809 -2.74276e-18)
(-0.0133505 2.92517 9.38308e-19)
(0.00380945 1.34788 0)
(0.0236388 1.38217 0)
(-0.00738774 2.12817 3.66708e-22)
(-0.00486268 2.0873 0)
(-0.0224342 1.88426 0)
(0.938149 -0.00758224 0)
(0.856684 -0.00979236 0)
(0.863353 0.00610318 0)
(0.94932 -0.00798194 0)
(0.883756 -0.00811846 0)
(0.517009 1.13194 -2.33941e-19)
(0.566328 1.18322 0)
(0.368885 0.882934 3.44298e-20)
(0.31104 0.74187 0)
(0.90173 1.0503 -1.4379e-19)
(1.01302 0.854404 2.87303e-19)
(0.358491 1.36188 0)
(0.52356 1.32669 0)
(0.542501 1.27764 0)
(0.11703 0.182201 -3.03029e-19)
(0.313669 0.183341 0)
(0.280368 0.0848736 2.02191e-19)
(0.985155 0.910479 0)
(1.0556 0.763597 0)
(1.07901 0.704029 -2.206e-19)
(1.11437 0.609311 0)
(1.16691 0.396403 5.54618e-20)
(0.957592 -0.00882017 0)
(0.962416 -0.0100895 0)
(0.901572 -0.00793958 0)
(0.984178 -0.0091662 0)
(0.974661 -0.00936737 0)
(0.937079 -0.00636663 0)
(1.00019 0.00233639 0)
(1.0009 0.00140895 0)
(0.99991 0.000852436 0)
(0.0352398 2.0667 4.46524e-19)
(0.120226 1.75732 0)
(0.0166034 2.18162 6.95e-19)
(0.0506791 1.86959 -5.86053e-19)
(0.103935 1.17504 -2.48332e-19)
(0.0446785 1.06061 0)
(0.14404 1.01659 0)
(0.00519222 0.894055 0)
(0.0151172 0.680388 0)
(-0.00188693 2.23673 -1.1325e-21)
(0.0211234 2.00789 0)
(-0.00379146 2.23978 -4.91303e-20)
(0.0166362 2.0125 8.55398e-20)
(0.00606882 0.866992 0)
(0.00441602 0.847276 0)
(0.00631218 0.648378 0)
(0.00480669 0.804114 0)
(0.00183911 0.577081 0)
(0.936316 0.00925312 0)
(0.847132 -0.0152195 0)
(0.926096 -4.27487e-06 0)
(0.84088 -0.0128902 0)
(0.811984 0.000577519 0)
(0.900935 0.0203358 0)
(0.876569 0.0249319 0)
(0.788831 -0.00190442 0)
(0.0058157 3.06494 -8.77239e-21)
(0.0166053 3.05772 0)
(0.0146862 2.96906 0)
(0.00869287 2.87627 0)
(0.924743 3.96646 0)
(1.23927 3.2993 9.30377e-19)
(0.0700236 3.07269 0)
(-0.028528 2.90422 0)
(0.00257922 1.39887 0)
(-0.0282094 1.70102 0)
(-0.00612688 1.5433 0)
(-0.0296618 2.56681 -5.90392e-21)
(-0.0121995 2.25711 0)
(-0.0194796 2.40394 0)
(0.00566181 1.93731 2.40526e-21)
(-0.00341797 2.23793 9.41121e-21)
(-0.00594234 2.19777 1.3206e-20)
(-0.00404692 1.92086 0)
(0.446342 0.123861 5.45727e-19)
(0.35574 0.00880679 -5.35786e-19)
(0.259948 1.57841 0)
(0.272623 0.740265 -3.17672e-19)
(0.17721 1.66417 -1.06384e-18)
(0.226993 1.20627 1.06637e-18)
(0.902174 0.00645953 0)
(0.967474 0.0110762 0)
(0.974599 0.0107868 0)
(0.923404 0.00646487 0)
(-0.000694208 0.794132 0)
(-0.0119849 0.79522 0)
(0.00383616 0.554797 0)
(0.212703 0.176533 6.52516e-19)
(0.177732 0.162587 -7.72384e-19)
(0.178661 0.124756 0)
(1.0887 0.0834847 2.85958e-20)
(1.07119 0.0379006 0)
(1.00609 0.0387827 0)
(0.901986 -0.0067667 0)
(0.484749 0.105948 0)
(0.534011 0.0875694 -2.48303e-18)
(0.395922 0.0057028 9.29699e-19)
(0.00897653 2.98146 7.49295e-19)
(-0.0322405 2.86615 4.79182e-20)
(0.00361664 3.05027 -1.85496e-20)
(0.0201493 3.04336 6.5908e-19)
(-0.0150007 2.99656 3.07903e-20)
(-0.0129402 2.94943 -1.23857e-22)
(-0.0172722 3.01196 -5.68871e-19)
(0.0148476 3.02388 4.11954e-19)
(0.00736803 3.03684 -6.53131e-19)
(0.933001 -0.0016132 0)
(0.938806 -0.00351117 0)
(0.844803 -0.00931625 0)
(0.956667 0.0118061 0)
(0.942928 0.0130688 0)
(0.881726 0.00600859 0)
(0.917747 0.0166228 0)
(0.926339 0.0148013 0)
(0.838558 0.00330402 0)
(0.720148 1.41017 3.58397e-20)
(0.753572 1.51912 0)
(0.186892 0.32547 7.22006e-20)
(0.22114 0.661929 5.83392e-19)
(0.261075 0.721253 -3.39637e-19)
(0.265789 0.533843 6.75107e-19)
(0.338501 0.794968 1.59368e-18)
(0.135857 0.223415 3.75104e-19)
(0.362324 0.171263 7.5868e-19)
(0.340547 0.180445 1.97848e-19)
(0.287607 0.0643962 3.77079e-19)
(1.15671 0.454174 3.97868e-20)
(1.17576 0.251429 3.48212e-20)
(0.00797402 2.22939 2.72343e-19)
(0.0459316 1.93748 0)
(0.966198 0.0285086 0)
(0.940195 0.01327 0)
(0.864994 -0.0185102 0)
(0.0112672 3.07431 0)
(0.0197999 2.94421 1.21169e-18)
(0.0164344 2.95634 0)
(0.00636129 2.85053 -1.20177e-18)
(0.00636697 3.09188 2.94504e-19)
(0.00707949 3.08234 0)
(0.786633 1.82146 -1.59007e-19)
(1.24713 2.49881 4.04799e-19)
(0.768714 1.96103 -1.23484e-18)
(0.0198871 2.9813 -6.48286e-19)
(0.0355771 3.00071 0)
(-0.0342667 2.8776 0)
(-0.00518301 2.21851 -1.24482e-20)
(-0.00508998 2.24079 -2.77175e-20)
(0.0105236 1.97235 -7.90747e-21)
(0.276762 1.38624 1.03327e-18)
(0.23129 0.528548 -7.08743e-19)
(0.0635749 1.99121 7.8153e-19)
(0.136156 1.87926 -9.27608e-19)
(0.179789 1.49852 9.23579e-20)
(0.00583479 3.11804 -1.64679e-18)
(0.0132734 3.1187 1.79293e-18)
(-0.00923552 2.98049 8.19156e-19)
(-0.00380938 2.97724 -7.76869e-19)
(-0.0215011 2.88101 -8.34295e-19)
(0.00848989 3.09872 -2.18958e-18)
(0.00167807 3.10638 2.19335e-18)
(0.275198 0.68611 0)
(0.240685 0.676203 -1.20315e-18)
(0.0963814 0.224325 5.33614e-19)
(0.35274 0.92082 1.11414e-18)
(0.191144 0.268265 -1.71769e-18)
(1.17133 0.171077 7.07592e-20)
(1.17627 0.305106 0)
(1.15999 0.119946 -1.62612e-20)
(0.0005202 2.24835 -1.79064e-21)
(0.00325673 2.23951 0)
(0.0297985 1.97267 0)
(0.340112 1.29452 -3.71765e-19)
(0.37073 1.13271 -8.04033e-19)
(0.205088 0.367575 1.43164e-18)
(1.00587 -0.0108552 0)
(1.00766 -0.00764839 5.14364e-19)
(0.00249656 1.32277 0)
(-0.0189894 1.29995 0)
(1.00222 0.00350476 1.80559e-21)
(1.00366 0.00944953 1.04987e-18)
(-0.0181005 2.55111 7.47564e-21)
(-0.0246515 2.59393 0)
(0.0354281 3.17814 4.3319e-19)
(0.394432 3.48975 0)
(1.16359 0.648119 -6.75571e-20)
(1.01291 0.0130901 -2.15048e-21)
(1.02126 -0.0103707 0)
(1.00171 0.000117343 7.61337e-23)
(0.102857 1.35974 0)
(0.144948 2.57407 0)
(0.0251686 1.30082 0)
(0.00186904 2.62516 4.90973e-20)
(-0.0196626 2.58393 1.93607e-20)
(1.00097 0.0288872 2.47104e-21)
(1.06203 0.00377696 0)
(1.09521 0.023574 0)
(-0.0240915 1.74196 0)
(-0.0214939 2.59354 0)
(-0.000436333 1.2936 0)
(0.296238 1.47174 -1.5656e-19)
(1.01127 -0.00964518 0)
(1.00939 -0.0149287 0)
(1.00238 0.000736203 6.57378e-19)
(1.00547 -0.00482219 -7.72512e-19)
(1.00118 -0.000998183 0)
(-0.00758234 1.45974 0)
(-0.00375955 1.36586 0)
(0.00314833 1.4179 0)
(-0.00127644 1.28116 0)
(-0.00775648 1.25915 0)
(-0.00550088 1.23535 0)
(1.03467 -0.00633335 0)
(1.02032 0.015698 -9.02511e-22)
(0.802714 1.26552 2.453e-19)
(1.00223 0.000309809 -6.54436e-19)
(1.00407 0.00524725 7.66429e-19)
(1.00117 0.00206598 0)
(1.01278 0.0103122 6.51611e-19)
(1.00801 0.00829315 -7.89351e-19)
(1.00858 0.0146886 0)
(-0.0256817 2.62222 0)
(-0.0264116 2.60164 -1.28417e-20)
(-0.024965 2.61554 9.69946e-21)
(1.22954 0.260972 6.18038e-19)
(1.15703 0.0842013 0)
(0.04255 3.07767 -9.54774e-19)
(0.0651443 2.85462 -6.94899e-20)
(0.141367 3.19261 1.46146e-18)
(0.136439 3.22119 -2.13825e-19)
(0.135149 3.23327 0)
(0.0191486 3.13739 2.47301e-19)
(0.0757294 3.1603 9.42007e-19)
(0.0685077 3.18591 -4.65935e-19)
(0.0220112 3.12971 0)
(0.624687 0.281896 0)
(0.554885 0.329356 0)
(1.131 0.68442 1.6217e-19)
(1.126 0.80751 -1.5603e-19)
(1.19013 0.572094 0)
(1.22013 0.508257 0)
(1.01613 0.0133126 -1.21479e-18)
(1.01499 0.0142491 1.5248e-18)
(1.02525 -0.00991102 0)
(1.02332 -0.0118994 0)
(1.00643 0.00257487 0)
(1.01041 0.00369929 0)
(1.00457 0.00183291 0)
(1.0098 0.00620271 0)
(1.00784 0.00596361 0)
(1.0045 0.00465985 0)
(0.0912516 1.35708 0)
(0.0852265 1.32774 0)
(0.122665 1.39296 0)
(0.137325 1.40398 0)
(0.145045 2.59862 0)
(0.185321 2.66642 -4.38888e-19)
(0.10051 2.65453 0)
(0.0862276 2.6574 2.13833e-19)
(0.039565 2.67919 -1.77478e-19)
(0.0155651 1.31505 0)
(0.0198875 1.24133 0)
(0.0221387 1.32391 0)
(0.0265355 1.2676 0)
(0.00424533 1.98002 -1.61921e-20)
(-0.0183849 2.61167 1.2578e-21)
(-0.00704909 2.66689 3.9135e-20)
(-0.0165068 2.68711 0)
(-0.0213831 2.6188 -4.30897e-20)
(-0.0219171 2.61358 -9.19881e-21)
(0.0136831 1.979 1.50216e-20)
(-0.00524803 2.3972 -1.68784e-21)
(-0.0114568 2.41908 -4.43877e-20)
(1.01097 0.0367295 1.23871e-18)
(1.00633 0.0162238 -1.52995e-18)
(1.00223 0.0436573 -1.23956e-18)
(0.979689 0.0223019 1.58064e-18)
(1.06326 0.00760018 0)
(1.04863 -0.00860815 0)
(1.09253 0.0334603 0)
(1.07296 0.0118625 0)
(1.07075 -0.000158042 0)
(1.13773 0.0803363 0)
(1.10921 0.042752 0)
(1.11227 0.0307946 0)
(-0.0249659 2.44175 -4.84087e-22)
(-0.0103786 2.01898 0)
(-0.0150557 2.22484 0)
(-0.0218395 2.61371 -4.0367e-21)
(-0.0197985 2.62183 -1.64845e-22)
(0.00653978 1.56813 -1.91534e-20)
(0.00139099 1.49608 1.94664e-20)
(-0.00577731 1.38295 0)
(-0.0090335 1.38898 0)
(-0.0125647 1.38395 0)
(0.00370459 1.29657 0)
(0.0112177 1.23776 0)
(0.377668 1.48747 2.52903e-19)
(0.418173 1.49069 1.37937e-19)
(0.597429 2.44899 -2.41494e-19)
(0.40091 2.54335 7.12202e-19)
(0.350634 2.06572 7.44848e-20)
(1.02099 -0.00818985 0)
(1.01546 -0.00978828 0)
(1.01489 -0.0155189 0)
(1.00745 -0.00115942 0)
(1.00494 -0.000938151 0)
(1.00776 -0.00475288 0)
(1.00924 -0.00369723 0)
(1.01417 -0.00446168 0)
(1.02105 0.0161392 1.1894e-18)
(1.01793 0.0156911 -1.52393e-18)
(1.02147 0.0181079 -1.19807e-18)
(1.01931 0.0168125 1.49788e-18)
(0.767433 1.31524 0)
(0.70396 1.36636 2.29591e-19)
(0.879236 1.21236 8.2692e-20)
(0.923106 1.16123 -1.09969e-19)
(1.15795 2.60761 2.94387e-19)
(0.796128 0.115353 6.05746e-19)
(1.16032 0.105615 0)
(1.20677 0.189888 -4.96664e-19)
(1.19149 0.151688 -2.10117e-20)
(1.00475 0.150102 0)
(0.134459 2.95998 5.59966e-19)
(0.111484 2.86589 -1.21242e-18)
(0.0212361 2.37444 8.15892e-19)
(0.0903997 -0.0507905 -3.63107e-19)
(0.339509 3.41911 -2.04479e-19)
(0.194213 3.31189 0)
(0.237133 3.35361 2.66301e-19)
(0.244138 3.03326 -1.8485e-18)
(0.338522 3.19236 0)
(0.00613483 3.12089 4.8051e-20)
(0.0171585 3.12947 -5.63335e-19)
(0.014897 3.12558 8.29127e-19)
(0.0349831 3.13975 0)
(0.0332054 3.15051 0)
(1.21597 2.60631 0)
(0.543866 0.828719 -5.38711e-19)
(1.0488 0.98288 6.30574e-21)
(0.983038 1.06522 0)
(0.838009 0.968907 -1.17116e-19)
(1.07474 0.878419 2.8546e-20)
(0.358789 0.377208 -9.34479e-19)
(0.676492 0.311766 -2.07978e-20)
(0.628593 0.221742 4.30466e-19)
(0.576946 0.363379 3.17931e-20)
(0.488065 0.328185 -1.27993e-18)
(0.647024 0.324761 0)
(0.701193 0.415978 7.31123e-19)
(0.710035 0.416894 0)
(0.611171 0.35309 0)
(0.567753 0.273303 0)
(0.809103 0.613131 4.31563e-19)
(1.22989 0.283359 -5.21743e-19)
(1.22824 0.419732 0)
(1.23742 0.359902 0)
(0.728148 0.187224 6.3908e-19)
(0.855659 0.536522 -3.96924e-19)
(0.750761 0.507038 7.03545e-19)
(0.951531 0.429213 -7.72556e-19)
(1.01959 0.0147701 8.17347e-19)
(1.01777 0.0142457 -8.22072e-19)
(1.01593 0.0154843 0)
(1.03613 -0.00587825 0)
(1.02969 -0.00853281 -7.70266e-19)
(1.02774 -0.0120645 7.62633e-19)
(1.02498 0.0100283 0)
(1.0236 0.0136548 0)
(1.01141 0.00408723 0)
(1.01426 0.00903597 0)
(1.01514 0.0040078 0)
(1.01424 0.002786 0)
(0.0624949 1.34224 0)
(0.0637529 1.29759 0)
(0.143547 1.36703 -9.28379e-21)
(0.270174 1.46884 8.00857e-20)
(0.163939 1.44046 1.66184e-19)
(0.195772 1.4475 -2.72548e-19)
(0.165178 1.39126 0)
(0.129721 1.59452 -8.85085e-20)
(0.113898 1.5678 0)
(0.348141 2.01801 -1.0828e-19)
(0.344836 2.35006 6.33503e-19)
(0.186378 1.45165 7.71849e-20)
(0.261398 1.38124 1.72594e-20)
(0.195891 1.37115 -1.39611e-20)
(0.271484 1.32344 -1.13743e-19)
(0.238768 1.5771 0)
(0.26107 1.61655 1.21054e-19)
(0.0312824 2.26359 -3.87311e-20)
(0.044094 2.66802 0)
(0.0654435 2.40076 1.54714e-19)
(0.061514 2.42102 0)
(0.0698394 2.67014 -2.36829e-19)
(0.0502155 2.69828 0)
(0.0289876 1.41359 6.97735e-21)
(0.0355491 1.46638 0)
(0.0291498 1.38337 0)
(0.0240654 1.38511 -7.87244e-21)
(0.00196037 2.6526 -1.71042e-20)
(0.0308548 2.69689 2.02754e-19)
(0.0120534 2.72239 1.4278e-21)
(0.00648439 1.8273 1.32258e-20)
(-0.00128785 1.67657 5.66214e-21)
(0.016175 1.29035 0)
(0.0236902 1.22297 0)
(0.0475817 1.57631 4.49885e-21)
(0.0296035 1.44962 -1.6706e-21)
(0.0376409 1.51475 2.04111e-21)
(0.0400237 1.60045 0)
(-0.0280354 2.27536 6.49576e-20)
(-0.0278071 2.55926 -2.62833e-20)
(-0.0156302 2.45393 6.57929e-23)
(5.37981e-05 1.84378 -1.60308e-20)
(-0.0226464 2.50382 -5.07937e-21)
(-0.0191069 2.44504 2.85633e-20)
(1.01938 0.0209014 -8.12137e-19)
(1.01546 0.026608 8.16669e-19)
(1.01455 0.0161937 0)
(1.0123 0.0703706 1.147e-18)
(0.990202 0.059171 -1.28939e-18)
(0.948338 0.043701 1.44431e-18)
(1.01367 0.107885 -1.52943e-19)
(1.04241 -0.00592485 0)
(1.05058 -0.00171501 7.35478e-19)
(1.03871 -0.0100146 -7.36987e-19)
(1.07004 0.0414216 -4.38073e-20)
(1.06389 0.0226271 3.77411e-19)
(1.06268 0.0543922 0)
(1.0533 0.0481061 -1.35674e-19)
(1.03239 0.0412027 0)
(1.02588 0.0377294 0)
(1.02783 0.0130163 0)
(1.02417 0.0157969 0)
(1.03998 0.0315655 2.79362e-19)
(1.039 0.0262418 -6.17092e-19)
(1.05055 0.032897 -2.96266e-19)
(1.04816 0.0328122 -3.2604e-19)
(1.07008 0.0628641 6.37603e-19)
(1.09505 0.0507192 0)
(1.10315 0.0944978 0)
(-0.0221008 2.28098 3.93932e-20)
(-0.0187982 2.02381 -8.1623e-22)
(-0.0161158 2.02967 0)
(-0.0285195 2.45418 -3.92054e-20)
(-0.0212692 2.40968 1.28593e-21)
(-0.032443 2.48299 3.25656e-21)
(-0.0198188 2.62826 7.82599e-21)
(-0.0203895 2.57106 -1.14824e-21)
(-0.0190326 2.52048 2.69015e-21)
(-0.0161682 2.62394 9.07228e-22)
(-0.0208718 2.62499 3.61621e-22)
(0.00256682 1.47983 -4.1258e-22)
(0.00806034 1.61692 -1.63451e-20)
(0.363824 1.43156 -1.04908e-19)
(0.364192 1.36963 4.45922e-20)
(0.647962 1.41546 -2.22108e-19)
(0.516489 1.48194 -1.35074e-19)
(0.571978 1.45005 0)
(0.593071 2.4255 2.11459e-19)
(0.660974 2.41874 3.40357e-19)
(0.410381 2.51683 8.51869e-20)
(0.402612 2.54415 -6.30996e-19)
(0.51125 2.48866 6.21021e-19)
(0.552497 2.46281 0)
(0.488738 2.51802 -5.67001e-19)
(0.247545 2.59154 1.17791e-18)
(0.353439 2.5653 -8.06278e-20)
(0.283689 2.65297 -1.62015e-18)
(0.945196 2.38135 7.30153e-19)
(0.837191 2.38483 0)
(1.01103 0.000457946 2.66657e-20)
(1.01526 -0.00547379 -2.16439e-20)
(1.01764 -0.00361098 -3.95374e-19)
(1.01496 -0.000943572 3.97348e-19)
(1.01238 0.00109857 0)
(0.636096 1.28632 0)
(0.659745 1.1828 0)
(0.768195 1.09514 0)
(0.652387 1.14673 0)
(1.18724 2.62191 5.87138e-20)
(1.07586 2.36803 0)
(0.839273 2.1832 3.85061e-21)
(0.826058 2.44657 0)
(0.923244 2.53798 -4.26779e-19)
(0.958823 2.49364 2.8404e-19)
(0.813768 0.173129 0)
(0.773787 0.145735 1.64791e-19)
(0.920167 0.144433 9.59674e-19)
(0.8361 0.146935 -3.58714e-19)
(0.8016 0.0837985 -1.10684e-18)
(1.07818 0.233719 -9.21948e-19)
(0.991728 0.291205 -1.59323e-20)
(0.927152 0.292002 8.84299e-19)
(1.00333 0.222157 7.39159e-19)
(0.952185 0.189013 -1.27487e-18)
(0.916944 0.190032 1.59319e-19)
(0.954576 0.254534 -3.39879e-19)
(0.931474 0.216587 0)
(0.992369 0.183467 6.29263e-19)
(1.04456 0.186357 0)
(1.04051 0.212927 0)
(1.105 0.117297 2.96548e-19)
(1.06811 0.174913 -1.42913e-20)
(1.07282 0.234705 -1.62057e-19)
(1.10322 0.201642 0)
(1.02273 0.0453112 6.30303e-19)
(1.04033 0.0579562 7.85841e-19)
(1.0339 0.0440465 -6.25205e-19)
(1.04322 0.0647091 -5.26599e-19)
(1.01906 0.0725902 -8.06516e-19)
(0.987955 0.156944 0)
(0.999109 0.104226 0)
(0.965907 0.066195 -5.14629e-19)
(0.9133 0.0893499 2.02121e-19)
(1.0386 0.1034 7.2836e-19)
(1.06823 0.120126 -8.56252e-19)
(1.07471 0.153134 7.65207e-19)
(1.02914 0.142358 0)
(1.07438 0.107768 0)
(1.05492 0.090154 -3.50304e-19)
(1.04458 0.0944864 -5.96361e-19)
(0.58237 1.07583 1.41329e-19)
(0.612343 1.40461 -4.29571e-20)
(1.15761 2.73801 -2.29688e-19)
(1.22403 3.07933 1.9858e-21)
(1.24973 2.72079 -1.36252e-19)
(1.27948 2.70443 -2.78716e-20)
(1.20762 2.34513 -1.03747e-20)
(1.21139 2.98343 -9.4828e-20)
(1.23088 2.94878 2.36967e-19)
(1.21486 3.23275 -1.43034e-19)
(1.3754 2.96463 1.97779e-19)
(1.36555 2.88285 0)
(0.551622 0.836791 -5.04838e-20)
(0.131525 1.24727 5.80754e-19)
(0.537513 0.427098 6.04288e-19)
(0.376166 0.176514 6.65848e-19)
(0.517875 0.363671 7.2319e-19)
(0.546444 0.463954 -1.16406e-18)
(0.548129 0.464984 9.50943e-19)
(0.492009 0.379134 -3.6535e-19)
(0.405354 0.311146 8.27562e-19)
(0.733981 0.251761 -3.66038e-19)
(0.694728 0.277518 0)
(0.669432 0.197097 8.61427e-21)
(0.734085 0.505401 3.84653e-19)
(0.706418 0.474369 -1.40257e-18)
(0.616319 0.461886 1.44444e-20)
(0.623432 0.448188 0)
(0.682343 0.725686 4.06962e-19)
(0.84102 0.772357 4.13146e-19)
(0.763429 0.85557 -4.82913e-19)
(0.885939 0.808249 -1.63854e-19)
(0.914776 0.851182 -4.07399e-20)
(0.922498 0.851342 4.17242e-20)
(0.854088 0.645827 -7.15622e-19)
(0.935214 0.702042 1.52223e-19)
(0.991256 0.716073 0)
(0.982573 0.692598 -2.07878e-19)
(1.02165 0.329734 2.22635e-19)
(1.14427 0.298606 3.04737e-19)
(1.06493 0.269454 3.77154e-19)
(1.00914 0.361116 -4.4811e-19)
(1.05884 0.425553 0)
(1.11523 0.411873 0)
(0.917268 0.362726 5.75279e-21)
(0.840674 0.295105 0)
(0.88004 0.290664 4.16676e-19)
(0.907709 0.298723 -5.06633e-21)
(0.945475 0.431594 2.15374e-18)
(0.904949 0.489141 5.5685e-19)
(0.907663 0.454148 -5.92046e-19)
(0.825535 0.438183 6.33986e-19)
(0.808686 0.43094 3.80588e-19)
(0.778233 0.412535 -3.74149e-19)
(1.02718 -0.000452883 6.58616e-19)
(1.01999 -0.000111854 0)
(1.01848 0.000822782 4.29364e-19)
(1.02167 -0.0017256 -9.72672e-19)
(1.0223 0.0042649 4.72454e-19)
(1.02039 0.0112112 -9.89432e-19)
(1.02133 0.0106045 0)
(1.02064 0.0108679 -2.06165e-19)
(1.01598 0.00768682 5.17199e-19)
(1.0167 0.0104426 -2.58058e-19)
(1.01741 0.00979084 1.90059e-19)
(0.0292596 1.31727 0)
(0.0323364 1.35718 0)
(0.0424698 1.31933 0)
(0.0427531 1.2753 0)
(0.0705838 1.38191 -5.72856e-21)
(0.0773128 1.35285 8.7457e-21)
(0.110447 1.51401 -2.39747e-20)
(0.0932828 1.36314 3.93029e-21)
(0.0340125 1.45481 -2.05716e-20)
(0.0377844 1.44775 1.61468e-20)
(0.061959 1.36648 -8.09696e-21)
(0.0541151 1.36837 1.45343e-20)
(0.0467847 1.34362 1.98395e-21)
(0.0384748 1.36608 -1.28474e-21)
(0.106485 2.37207 -1.71035e-19)
(0.0952219 2.41878 0)
(0.169247 2.04796 1.14974e-19)
(0.10864 1.70973 4.81419e-20)
(0.229523 2.04446 -9.41083e-20)
(0.203782 2.43758 0)
(0.264488 2.38873 -6.14807e-19)
(0.302529 2.38679 4.35977e-19)
(0.228895 2.00472 -2.62055e-19)
(0.152607 2.16511 1.74122e-19)
(0.142902 2.2766 0)
(0.0188942 1.87466 -2.95164e-20)
(0.00047454 2.39452 -7.67252e-20)
(0.00651511 2.1492 0)
(0.0118731 2.45703 -1.35509e-20)
(0.0277429 2.3017 2.63161e-20)
(0.0190181 1.39545 -2.19228e-21)
(0.0207558 1.38169 4.05429e-20)
(0.0208025 1.38576 -1.51907e-20)
(0.0234305 1.38535 -9.08355e-21)
(0.028581 1.41736 0)
(0.017377 1.36806 0)
(0.0110508 1.28956 -2.31701e-20)
(0.0113551 1.35824 5.76425e-21)
(0.0160891 1.36002 0)
(0.0145687 1.28417 -1.72297e-20)
(0.0240318 1.21692 3.59886e-20)
(1.04046 0.0114003 0)
(1.04646 0.00767515 -6.90038e-20)
(1.03854 0.0211549 -4.97552e-19)
(1.04804 0.0200481 0)
(1.05199 0.0199169 0)
(1.03627 0.0114865 -6.69335e-21)
(1.03095 0.0113346 7.99147e-19)
(1.03175 0.0162592 9.68797e-19)
(1.02576 0.0201628 0)
(1.0229 0.0205502 0)
(1.03512 0.0249013 4.96153e-19)
(1.026 0.026179 0)
(1.02427 0.0261989 0)
(-0.0136353 2.02076 0)
(0.00773836 1.64789 -4.45815e-21)
(-0.000509974 1.7557 -2.35675e-20)
(0.00535827 1.36773 0)
(-0.0028605 1.54276 -6.46169e-21)
(0.00288108 1.44643 5.55347e-21)
(0.00323107 1.37724 0)
(0.390742 1.66676 0)
(0.36703 1.29838 -8.42821e-20)
(0.301936 1.34171 0)
(0.420552 1.2985 2.57387e-20)
(0.466653 1.45785 0)
(0.447636 1.4028 1.54323e-20)
(1.03623 2.68624 -1.55194e-20)
(0.96639 2.41138 -9.17885e-19)
(0.917405 2.19392 1.04467e-18)
(0.850767 2.37709 2.43434e-19)
(0.848057 2.49718 0)
(0.917944 2.49322 0)
(0.928512 2.37492 0)
(0.907389 2.36221 -9.46916e-19)
(0.689276 2.4644 -3.99991e-19)
(0.801608 2.45446 -9.86026e-20)
(0.812313 2.42819 7.51013e-20)
(0.695418 2.39333 0)
(0.800271 2.38928 0)
(0.758824 2.40172 -3.70268e-19)
(0.769361 2.4871 0)
(0.620431 1.09947 0)
(0.486585 0.923996 -5.0832e-19)
(0.559348 0.959325 -3.23257e-20)
(0.524141 1.05488 0)
(0.525109 1.00315 7.63041e-19)
(0.786227 0.880483 -1.3562e-19)
(0.793338 1.01797 0)
(0.767794 0.979255 1.96692e-19)
(0.653668 1.03623 0)
(0.658205 0.942296 0)
(1.16562 2.76032 -2.34718e-19)
(1.14338 2.82363 -9.94324e-20)
(0.932794 2.34266 1.03623e-19)
(0.900363 2.32149 -8.44206e-20)
(1.1307 2.73382 0)
(1.08405 2.70386 1.01623e-19)
(1.09075 2.48712 -3.20289e-19)
(0.985134 2.23682 -3.07243e-20)
(0.498021 1.35155 0)
(0.512341 1.07628 -1.24646e-19)
(0.568368 1.16926 0)
(0.857745 0.230329 0)
(0.782681 0.185317 0)
(0.721917 0.145472 0)
(0.852135 0.234365 -6.5585e-19)
(0.755996 0.22177 3.83945e-19)
(0.929101 0.0756107 -4.17497e-19)
(0.944642 0.121914 0)
(0.924361 0.135472 1.7904e-19)
(0.862541 0.110432 7.18778e-19)
(0.830672 0.0679559 -4.4975e-19)
(1.16126 3.35801 -7.19691e-19)
(1.20949 3.27729 0)
(1.15917 3.3863 -1.48437e-18)
(0.646723 3.54714 1.2609e-18)
(0.871078 3.11472 6.87163e-20)
(0.5208 0.8405 6.09763e-19)
(0.433868 0.837356 0)
(0.33144 0.464711 -1.53917e-19)
(0.456672 0.672508 8.74089e-19)
(0.540231 0.432048 -2.09439e-19)
(0.511001 0.495252 2.40957e-19)
(0.66503 0.520274 5.19091e-19)
(0.69646 0.546411 0)
(0.649834 0.600574 0)
(0.606773 0.541877 0)
(0.995976 0.602065 9.95854e-20)
(0.910787 0.538322 -5.41838e-19)
(0.937084 0.572193 4.11338e-19)
(0.969797 0.509396 -4.18602e-19)
(1.07615 0.482216 0)
(1.08277 0.571627 -1.04189e-19)
(0.848372 0.391279 -8.68198e-19)
(0.851102 0.380293 -1.07256e-18)
(0.794637 0.380415 6.77146e-19)
(0.793903 0.352019 -6.92312e-19)
(0.842925 0.313842 -5.41405e-19)
(0.793255 0.311915 6.64454e-19)
(1.02668 0.00573675 -5.03627e-19)
(1.0264 0.00596025 1.02553e-18)
(1.02931 -8.82803e-05 6.38452e-19)
(1.03344 0.000801604 -7.68909e-19)
(1.03357 0.00870308 0)
(1.03006 0.00935223 -1.25113e-18)
(0.0629617 1.64443 2.62348e-20)
(0.0452836 1.57733 0)
(0.0842145 1.69494 1.59928e-19)
(0.0949389 1.67692 -1.41546e-19)
(0.0866269 1.53025 4.49659e-20)
(0.0855634 1.51512 0)
(0.0148245 1.67387 0)
(0.00268764 1.47895 -9.56069e-23)
(0.00648858 1.42308 8.59753e-23)
(0.000587408 1.53768 6.12476e-21)
(0.00500909 1.87822 -5.18299e-22)
(-0.00481604 1.93025 4.1106e-21)
(0.497603 1.3708 -2.80134e-19)
(0.490849 1.37406 3.07409e-19)
(0.446044 1.29538 -3.8703e-20)
(0.435493 1.29257 8.20269e-21)
(0.628064 1.30054 0)
(0.544904 1.3884 9.32091e-20)
(0.560322 1.39617 -9.07506e-20)
(0.457039 1.28122 3.76199e-20)
(0.512646 1.23639 0)
(0.565121 1.2036 0)
(0.655913 2.42341 5.87722e-19)
(0.670323 2.46155 1.27838e-18)
(0.716006 2.47309 -8.80629e-19)
(0.614121 2.44807 -2.06225e-19)
(0.56063 2.54005 2.87386e-19)
(0.509646 2.51331 -7.6602e-19)
(0.977261 2.38094 -5.84589e-19)
(1.01334 2.39422 0)
(0.924031 2.17207 -6.76704e-19)
(1.05428 2.68323 0)
(1.05653 2.67002 0)
(0.610364 2.27024 -1.19848e-19)
(1.04236 3.16113 1.33657e-19)
(0.913244 3.03115 -3.71853e-20)
(0.278358 0.896669 0)
(0.314831 0.752916 -3.21796e-19)
(0.477816 0.710463 -3.23917e-19)
(0.387313 2.01654 0)
(0.466331 2.78376 -4.78349e-20)
(0.42179 2.54721 0)
(0.699243 0.672886 -8.62255e-19)
(0.782797 0.676715 1.17145e-18)
(0.80271 0.619338 -1.15923e-18)
(0.678212 0.635036 -1.11438e-19)
(0.733643 0.588841 -4.60743e-19)
(1.00505 2.76341 -1.01637e-19)
(1.0431 2.82092 -1.66397e-19)
(0.639078 2.14313 6.75191e-19)
(0.595828 1.71112 -4.81169e-19)
(0.70004 1.90474 -4.0755e-19)
(0.990805 2.44697 -1.1397e-19)
(0.996077 2.4398 2.99422e-19)
(0.659831 1.84161 2.82632e-20)
(0.452022 1.33234 1.46063e-19)
)
;

boundaryField
{
    wall-4
    {
        type            noSlip;
    }
    velocity-inlet-5
    {
        type            fixedValue;
        value           uniform (1 0 0);
    }
    velocity-inlet-6
    {
        type            fixedValue;
        value           uniform (0 3 0);
    }
    pressure-outlet-7
    {
        type            zeroGradient;
    }
    wall-8
    {
        type            noSlip;
    }
    frontAndBackPlanes
    {
        type            empty;
    }
}


// ************************************************************************* //
