/*--------------------------------*- C++ -*----------------------------------*\
| =========                 |                                                 |
| \\      /  F ield         | OpenFOAM: The Open Source CFD Toolbox           |
|  \\    /   O peration     | Version:  4.0                                   |
|   \\  /    A nd           | Web:      www.OpenFOAM.org                      |
|    \\/     M anipulation  |                                                 |
\*---------------------------------------------------------------------------*/
FoamFile
{
    version     2.0;
    format      ascii;
    class       volScalarField;
    location    "9";
    object      p;
}
// * * * * * * * * * * * * * * * * * * * * * * * * * * * * * * * * * * * * * //

dimensions      [0 2 -2 0 0 0 0];

internalField   nonuniform List<scalar> 
918
(
0.215414
0.912164
0.00672943
0.213735
0.00133167
0.879879
-0.826581
0.406073
0.194276
-0.12909
0.0227465
0.183829
0.741703
0.510095
-1.42568
0.018296
0.353642
-0.637812
0.191048
0.0077913
0.497722
0.201508
0.204896
0.1958
0.252599
0.512432
0.621054
-0.00131968
-0.0028212
-0.000336206
0.00286671
-0.000676898
0.00851304
0.762916
0.813874
0.836477
0.16486
0.116049
-0.654523
-0.763537
-0.703721
-0.836365
0.391466
0.398875
-0.505379
0.405022
0.420176
0.184478
0.193537
0.194498
0.196668
0.194724
0.196479
0.2936
-0.135436
-0.180446
-0.0749386
-0.0511124
0.0899961
0.0244578
0.0193162
0.0255525
0.0282855
0.125789
0.181473
0.181994
0.188047
0.197354
0.851005
0.821489
0.847209
0.765934
0.780072
0.718957
0.690507
0.528674
0.549474
0.498221
0.487425
-1.83522
-2.76848
-0.851317
-0.601972
0.000593845
0.0248999
0.0329375
0.33411
0.343302
0.347945
0.367291
0.768568
-0.565349
-0.759692
0.192526
0.190124
0.200706
0.200864
0.198009
0.195929
0.0164236
0.020625
-0.00398427
0.00594683
0.00426596
0.463917
0.464474
0.196634
0.192245
0.20553
0.226428
0.213709
-0.0283474
0.261597
0.294164
0.298271
0.485259
0.486382
0.491429
0.595773
0.55933
0.657975
0.68158
0.00508719
0.000712695
0.016867
0.0108849
0.0138534
0.16305
0.158066
0.178235
0.16884
0.170707
0.081678
-0.0622116
0.183014
0.117798
-0.573931
-0.669271
-0.626086
-0.675448
-0.810857
0.363468
0.37851
0.386901
-0.504108
-0.421726
-0.584296
-0.349344
-0.434563
0.172387
0.179512
0.176154
0.190394
0.187141
0.187828
0.197848
0.194702
0.196228
0.327154
0.389184
0.257284
0.229112
-0.368317
-0.213916
-0.401025
-0.0278164
-0.0212043
0.102164
0.112281
0.0817548
0.0742844
-0.00492842
0.0122417
0.00368474
0.0283641
0.0303803
0.117276
0.108564
0.135314
0.141073
0.174977
0.174178
0.178585
0.174787
0.640086
0.663635
0.671814
0.644992
-3.75289
-6.76742
-0.278107
-0.133175
0.00259056
0.00276264
0.00169516
0.00319797
0.00276759
0.00235136
0.0476373
0.0444707
0.0363477
0.0404477
0.31988
0.330313
0.757563
0.823059
0.679876
0.66896
0.180592
0.182956
0.188135
0.181837
0.0262449
0.022818
0.024504
0.419117
0.440295
0.437736
-0.0652833
-0.157773
0.0178299
0.0415791
0.310297
0.294855
0.313623
0.363471
0.402412
0.689226
0.707915
0.706573
0.714828
0.75949
0.772398
0.739828
0.146101
0.153797
0.151022
0.178206
0.178164
0.176447
0.172966
0.174084
0.17314
-0.238641
-0.626908
-0.2216
-0.198031
0.0483543
-0.0684389
0.424365
0.606806
0.359546
0.369645
0.378978
-0.282931
-0.364757
0.198094
0.177048
0.0664017
0.0985451
0.0817254
0.612105
0.573269
0.623317
0.596447
0.556882
0.583056
-0.691282
-1.92257
-1.20211
0.237284
0.0372835
0.131172
0.0671708
0.0523265
0.0585361
0.806927
0.844081
0.430111
0.564467
0.552305
0.44565
0.477844
0.532698
0.457517
0.491581
0.525522
0.50665
0.145809
-0.16932
0.0320642
0.643634
0.787563
-0.172487
-0.212778
-0.291627
0.121603
0.151655
0.138597
0.802307
0.764911
0.826096
0.192313
0.194143
0.00921988
0.0137332
0.196729
0.197071
0.00726929
0.0105042
0.106085
-1.12349
-0.202665
0.182837
0.177458
0.192409
-0.0927894
0.295026
0.0264796
0.0946196
0.0635312
0.182829
0.133756
0.0998472
0.00705637
0.0251797
0.0163409
-0.370572
0.189543
0.188868
0.191684
0.194315
0.193682
0.00720015
0.00913502
0.00586234
0.0142217
0.0092511
0.00824406
0.162152
0.17417
-0.512032
0.192073
0.193879
0.193584
0.185128
0.19299
0.189836
0.0192533
0.0124155
0.0171506
-0.0683325
0.0384437
0.36407
0.507556
0.292069
0.0735781
-0.172505
0.266861
0.335171
0.231349
0.404129
0.360288
0.391225
-0.142518
-0.288175
-0.122109
-0.17805
0.181973
0.18107
0.176234
0.171675
0.188206
0.186075
0.190356
0.186028
0.188833
0.190914
-0.0428235
-0.0627689
-0.103786
-0.182381
0.312803
0.404631
0.24387
0.241546
0.143482
0.0283387
0.0284046
0.0276012
0.0185948
0.0711754
0.069395
0.078942
0.0786544
0.0540199
0.0524284
0.0692156
0.0659299
0.0732893
0.178048
0.176572
0.181322
0.186708
0.140073
0.14554
0.115285
0.133376
0.121046
0.0676032
0.0977851
0.0763288
0.00892403
0.0104596
0.0064985
0.0305398
0.0344189
0.0157333
0.0124551
0.0152862
0.0111924
0.0110261
0.0201257
0.0238874
-0.314916
-0.459747
0.753989
0.606429
0.376461
0.179667
0.186742
0.181546
0.186429
0.188837
0.191814
0.189539
0.187555
0.174932
0.176308
0.172429
0.172789
-0.499876
-0.540549
-0.417052
-0.460858
-0.0901328
0.290799
0.0486704
-0.0160801
-0.017326
0.191949
0.495232
0.320581
0.446551
0.48383
-0.666857
-0.310766
-0.610072
-0.0622439
-0.20756
0.372959
0.42991
0.456008
0.397895
0.342954
-0.51044
0.222439
-0.381096
-0.345003
-0.159127
-0.255741
0.414592
0.3438
0.352123
0.378496
0.398359
0.350373
0.326284
0.326874
0.370708
0.372631
0.163036
-0.0365043
-0.0954417
-0.124134
0.328527
0.206074
0.265689
0.17635
0.176913
0.180128
0.177579
0.165017
0.171407
0.169454
0.171309
0.174012
0.183376
0.181852
0.178457
0.181075
-0.0358182
-0.0233655
-0.032894
-0.253123
-0.207678
-0.296234
-0.115048
0.132409
0.103249
0.37454
0.404679
0.0783211
-0.117448
-0.0755493
-0.0333917
0.174364
0.157958
0.115781
0.158965
0.175695
0.149291
0.207024
0.191459
0.0486173
0.0638461
0.0380261
0.0389254
0.101669
0.120689
0.122881
0.0548764
0.0540675
0.032721
0.0299775
0.0828112
0.0524082
0.0710738
0.0708562
0.0276529
0.0306741
0.0334995
0.0479183
0.0458541
0.0492574
0.173119
0.173616
0.173665
0.187299
0.197194
0.209158
0.179513
0.159799
0.151001
0.154378
0.132177
0.142168
0.138832
0.14525
0.163297
0.17073
0.169341
0.170598
0.157575
0.159962
0.149879
0.150774
0.135685
0.117443
0.105142
0.020721
0.0148503
0.0166197
0.0158992
0.0132447
0.0140254
0.0477285
0.0378387
0.0435205
0.038841
0.0436629
0.0197883
0.0213832
-0.169097
-0.0383823
-0.454138
-0.401644
-0.514317
0.707491
0.754457
0.604228
0.502448
0.521605
0.645872
0.692969
0.435353
0.518045
0.518014
0.298435
0.783202
0.183656
0.184645
0.181552
0.179983
0.18168
-0.44916
-0.378163
-0.295447
-0.206011
-0.0251959
0.0982905
-0.512937
-0.0930524
0.0438974
-0.112231
0.285954
0.30189
0.248922
0.274081
0.279529
0.112379
0.175819
0.234741
0.193508
0.23054
0.252799
0.22033
0.244585
0.194077
0.155195
0.15582
0.10345
0.116461
0.09519
0.0774952
0.172492
0.15207
0.161922
0.1549
0.176803
0.201959
0.192384
0.212272
0.231697
0.161795
0.129019
0.134468
0.160694
0.126076
0.139229
0.150726
-0.464796
-0.466178
-0.231728
-0.383766
-0.243781
-0.350062
-0.341564
-0.317075
0.00417575
-0.689008
-0.756717
-1.29683
0.17971
0.583779
0.368813
0.285862
0.397555
0.370492
0.371303
0.417614
0.420548
0.319284
0.33716
0.341797
0.301677
0.3137
0.356365
0.35113
0.210286
0.0376616
0.0133429
-0.0048012
-0.121719
-0.0903897
0.118539
0.0330055
-0.0324457
-0.0211746
0.150012
0.0476852
0.114111
0.137618
0.0534789
0.0339047
0.220394
0.285507
0.272439
0.252865
0.168514
0.18306
0.218255
0.252847
0.274488
0.307971
0.170884
0.178026
0.177135
0.175162
0.175133
0.175829
0.175477
0.176879
0.178913
0.179978
0.17916
0.0175085
0.0311488
-0.00588556
0.00111491
0.0279198
0.0143543
0.0577608
0.0416179
0.0415172
0.0414647
0.0185603
-0.00559109
0.012371
0.0341977
0.173651
0.208193
0.192309
0.13831
0.257235
0.374429
0.438075
0.384656
0.223679
0.245242
0.275084
0.0934736
0.0932351
0.0858994
0.101542
0.101667
0.0386801
0.0387776
0.0399998
0.0469018
0.0475669
0.0345147
0.0257471
0.0264254
0.0305431
0.0300191
0.0288389
0.162162
0.157322
0.157097
0.152169
0.150988
0.162633
0.164271
0.16658
0.169876
0.171088
0.16461
0.168613
0.170392
0.0347545
0.0280643
0.0313903
0.0271647
0.0282162
0.0229352
0.0225208
-0.00695567
0.0500573
0.158321
-0.1125
-0.31244
-0.178184
0.0177011
0.129146
-0.155362
0.648704
0.384658
0.137682
0.302861
0.571023
0.206418
0.503109
0.327128
0.712194
0.645244
0.76126
0.535607
-0.196685
0.0732945
0.119606
-0.253908
-0.0500518
-0.0572845
-0.172598
-0.118844
-0.125248
-0.00567259
-0.158346
-0.279029
-0.638359
-0.591709
-0.0779081
-0.105124
0.00408026
-0.0937795
-0.615944
-0.689327
-0.539334
0.279334
0.299869
0.317705
0.286623
0.31162
0.239428
0.233528
0.249885
0.259794
0.24969
-1.03879
-0.732301
-1.68985
-1.00881
-0.49602
0.247812
0.219152
0.417573
0.313399
0.3756
0.359833
0.336244
0.304231
0.303727
0.336806
0.0421708
0.142445
0.120378
0.132305
0.0251881
-0.0254165
0.261482
0.250881
0.292783
0.312682
0.27628
0.312748
0.171526
0.17038
0.16768
0.16628
0.164374
0.165439
0.1089
0.0789826
0.131014
0.113317
0.0732329
0.0568897
0.0419342
0.0375918
0.034964
0.0340874
0.0366567
0.0418706
-0.442692
-0.314293
-0.260348
-0.212535
-0.465708
-0.361454
-0.389598
-0.436408
-0.517707
-0.518832
0.379601
0.644691
0.507596
0.652373
0.479469
0.476799
-0.238578
-0.280777
-0.345625
-0.104433
-0.02159
0.0654583
-0.506212
-0.371256
0.373367
0.465833
0.336952
0.224074
-0.113174
-0.0464121
0.226156
0.145888
0.190468
0.26839
0.262537
-0.238645
-0.21593
0.157982
0.381839
-0.105538
-0.0987229
-0.144327
0.131899
0.0557478
)
;

boundaryField
{
    wall-4
    {
        type            zeroGradient;
    }
    velocity-inlet-5
    {
        type            zeroGradient;
    }
    velocity-inlet-6
    {
        type            zeroGradient;
    }
    pressure-outlet-7
    {
        type            fixedValue;
        value           uniform 0;
    }
    wall-8
    {
        type            zeroGradient;
    }
    frontAndBackPlanes
    {
        type            empty;
    }
}


// ************************************************************************* //
