/*--------------------------------*- C++ -*----------------------------------*\
| =========                 |                                                 |
| \\      /  F ield         | OpenFOAM: The Open Source CFD Toolbox           |
|  \\    /   O peration     | Version:  4.0                                   |
|   \\  /    A nd           | Web:      www.OpenFOAM.org                      |
|    \\/     M anipulation  |                                                 |
\*---------------------------------------------------------------------------*/
FoamFile
{
    version     2.0;
    format      ascii;
    class       surfaceScalarField;
    location    "9";
    object      phi;
}
// * * * * * * * * * * * * * * * * * * * * * * * * * * * * * * * * * * * * * //

dimensions      [0 3 -1 0 0 0 0];

internalField   nonuniform List<scalar> 
1300
(
3.75095
5.62643
-6.34028
3.75095
-6.22323
5.62643
-4.54395
4.54395
-1.54874
1.54874
1.87714
1.87381
-5.15869
5.15869
-5.17866
5.17866
-2.92803
2.92803
-5.24597
5.24597
-5.0691
5.0691
4.65361
-4.65361
-5.05562
5.05562
-1.99255
1.99255
-5.45979
5.45979
3.16448
-3.16448
-5.28353
5.28353
-0.636703
0.636703
-0.551388
4.30234
3.19957
3.19957
-2.67172
2.67172
-4.84789
4.84789
6.21756
-6.21756
9.58184
-9.58184
-3.24155
-3.37478
1.35923
-8.10324
-4.864
-4.864
-8.44057
8.44057
-2.81414
2.81229
3.03632
-3.03632
-1.77566
1.77566
-4.45379
-0.0901546
-4.45379
4.67678
-0.132828
4.67678
-1.70275
0.154004
-1.70275
4.13559
-4.13559
1.35497
0.193779
1.35497
3.01783
-3.01783
-1.87777
3.75491
1.87318
-1.87025
6.17259
-1.8807
3.75452
-4.83672
4.83672
-5.26619
0.107502
-5.26619
5.09559
0.0631
5.09559
-5.28689
5.28689
-5.13881
-0.0398525
-5.13881
5.22008
-0.0414202
5.22008
3.12387
-3.12387
-2.95317
0.0251379
-2.95317
2.86579
0.0622395
2.86579
0.354317
5.27211
-5.98075
8.79304
-5.27211
0.0261443
5.20859
0.0373756
5.20859
-5.10773
0.0386319
-5.10773
5.01006
0.0590355
5.01006
4.71237
-0.0587572
4.71237
-4.79092
0.137313
-4.79092
-3.33855
-3.27747
-5.12095
0.0653222
-5.12095
-2.03284
0.0402931
-2.03284
1.97599
0.0165568
1.97599
-3.79079
3.79079
-5.34784
-0.111951
-5.34784
3.09755
0.0669375
3.09755
1.86984
1.88111
5.6208
-5.6208
2.45631
-5.2768
-0.00672956
-5.2768
-5.30171
-4.28013
5.30171
-0.0181846
-0.947201
0.310498
-0.947201
3.16042
0.0391463
3.16042
2.78292
0.0828701
-2.78292
0.111199
3.49628
-3.49628
2.05588
0.615835
2.05588
-5.57213
5.57213
4.94822
0.0618394
-4.94822
0.10033
6.15673
0.0608231
6.15673
-6.19965
-0.017912
-6.19965
3.34372
-6.71851
-3.33504
4.96954
0.0860852
-4.96954
0.10554
3.05511
-0.0187971
3.05511
-2.9843
2.9843
-3.01659
-0.0197286
-3.01659
-2.2465
0.470839
-2.2465
1.26039
0.515274
1.26039
-4.34502
-0.108775
-4.34502
-4.98195
-0.365888
4.98195
-0.305177
1.13766
-1.13766
-1.83204
0.129296
-1.83204
-4.24925
-0.0957647
4.24925
-0.113663
-4.02232
-0.113268
-4.02232
-3.0018
-0.0147859
3.0018
0.0160271
3.08895
0.0714697
-3.08895
0.0711201
-1.87025
3.75136
-1.8807
3.75388
-4.66822
-0.168495
-4.66822
4.95247
-0.115755
4.95247
5.45986
-6.52486e-05
-5.45986
0.193668
5.05332
0.0422647
5.05332
-5.29185
0.0049528
-5.29185
5.2892
-0.00230941
5.2892
5.07993
-0.0266094
-5.07993
-0.0588769
5.25543
-0.0353532
5.25543
3.16521
-0.0413331
3.16521
-3.09516
-0.0287123
-3.09516
2.9857
-2.9857
2.96635
0.0193414
-2.96635
0.0131895
-11.1321
11.1142
-0.0345996
-11.0975
5.17399
5.17399
4.12259
0.589772
4.12259
-5.00884
0.217922
-5.00884
3.3364
-6.67145
3.2685
-6.60704
3.32838
-11.4316
3.36142
-6.63889
5.2439
-5.2439
5.18442
0.0594816
-5.18442
0.0634703
-2.02772
-0.0051229
-2.02772
-3.51145
-0.279338
-3.51145
4.06738
-0.276591
4.06738
-2.98207
2.98207
-3.03164
0.0495626
3.03164
0.0659104
5.27193
-0.0164947
-5.27193
-0.00486731
1.15328
0.20169
-1.15328
0.206074
3.69265
-0.196367
3.69265
-3.31106
-0.185217
-3.31106
-2.05691
0.0291867
2.05691
-0.00102379
-5.82052
0.248394
-5.82052
-11.1906
0.093163
-11.1533
-6.10648
-6.10648
2.33408
11.1271
-3.07475
-0.0204121
3.07475
-0.0196346
2.97002
0.0120532
-2.97002
-0.014282
-2.99544
0.00974347
2.99544
-0.011137
-2.6477
0.401198
-2.6477
-0.51103
0.51103
-0.779795
0.268766
0.779795
0.480593
1.68555
-0.547889
1.68555
1.92907
0.0469277
-1.92907
0.0970211
-3.9352
-0.0871189
-3.9352
5.08254
-0.130061
5.08254
-3.20873
-0.102332
3.20873
-0.0435231
-0.0326081
11.1468
-5.14138
0.0336552
5.14138
-11.2076
11.2413
-3.25243
0.604729
3.25243
0.870166
5.29727
0.274853
-5.29727
0.28843
5.27949
0.00971253
-5.27949
0.0355918
-3.11045
-0.401
-3.11045
-4.38596
-0.282261
4.38596
-0.318584
-11.4742
-0.200955
11.6751
-11.4151
6.02148
0.135258
-6.02148
11.3765
-0.734369
-0.403293
0.734369
-0.223339
2.16559
-0.480043
2.16559
3.84829
-0.15564
-3.84829
-0.086918
-5.22981
-0.0620336
5.22981
-0.147277
-2.63405
-0.476399
2.63405
-0.468457
-4.27214
4.31129
1.90045
-3.34644
-3.37207
-7.62656
1.84671
1.90466
4.30302
-7.03317
-4.39845
-6.92763
7.27394
-6.98551
-9.24817
9.18941
7.39282
-7.50609
-5.78435
5.85026
6.37329
-6.35726
1.88131
1.8736
10.4793
-10.3718
-10.5382
10.3697
10.2
-10.2399
10.7259
-10.7209
-12.3664
12.3761
-5.71793
5.74307
-6.60492
6.57621
-6.7531
6.70958
-3.35771
-3.24934
9.01151
-8.94619
11.7588
-11.7655
-10.4745
10.3625
3.36065
0.950636
3.43212
-1.88532
3.76663
-1.8692
3.76965
3.32086
-6.67857
3.35058
-6.72265
6.04862
5.71015
-6.03044
-1.59613
-5.86953
5.85074
-5.84324
5.8321
8.29365
-8.3838
-1.88694
3.76054
-1.86694
3.7716
-3.43068
-2.35367
3.36374
0.939278
5.55882
3.45269
-5.64491
-1.28272
-7.5792
7.42356
-7.8598
7.67459
-0.465498
5.84055
-5.37505
4.38239
-1.56682
7.40736
5.70712
5.92504
5.86873
-5.59388
1.11677
-6.49182
-6.39149
-2.66112
2.79041
2.65233
-2.45855
5.7955
1.59733
5.68183
-5.41693
-2.08916
-5.50405
3.81508
2.03517
3.86465
4.04084
2.33245
4.02605
3.04169
-3.02733
-0.0143609
-3.09042
6.13211
0.733214
-5.44409
-4.50481
6.8361
3.64315
6.8992
-6.98402
-3.38773
-6.79036
-6.39366
-4.14453
-6.67592
6.67471
3.69499
6.55896
-7.97957
7.83229
6.80266
3.39735
6.76124
-6.73376
-3.5061
-6.79264
10.4548
-2.69397
-7.76088
-6.92146
-5.44494
6.92377
3.80211
7.51668
4.85942
7.55228
3.56818
6.88666
-7.37029
1.92535
-3.82916
-1.88878
-3.81597
3.70897
2.0341
3.77121
-4.13254
-2.47238
-4.15296
-4.20009
-2.55301
4.24142
2.33479
-4.28889
-3.57091
4.39122
2.31836
2.97459
-7.37304
3.6643
-6.91364
-6.27356
-2.67263
-6.21009
4.06673
2.65156
-6.71829
-2.61184
10.9306
-5.22048
9.3345
-7.3246
-4.4409
-7.32947
-6.96757
-3.50689
-7.33346
-5.97838
5.57738
-6.03364
5.75704
11.6785
-5.2043
-6.47419
-3.92647
-2.43079
3.85535
-0.423235
-3.74476
3.7304
0.0218635
3.79151
4.74215
4.31891
-3.85416
-1.98908
-3.86844
3.84042
1.99169
3.85016
6.15519
2.13845
6.02236
-6.0127
-2.3711
-6.12148
9.22169
-8.75086
2.94849
-2.91931
5.13556
2.53903
-4.93919
-2.64001
5.94132
-2.98576
-2.95556
-12.3119
10.6225
1.68939
-4.90457
-0.522175
0.114528
-5.49332
-3.75484
5.35601
0.569032
11.1916
7.43673
-5.51302
5.76141
6.16212
6.22396
-0.167531
5.74591
-5.14118
5.38343
-2.28802
-3.09542
5.08516
-5.18093
-1.03631
-5.1905
4.15418
0.500907
1.86159
-1.55109
-2.15474
-0.506381
-2.05771
1.618
1.03433
1.81969
0.993929
1.79648
-2.88216
0.508062
2.3741
-1.88823
-1.95049
-3.60329
-0.89539
4.49868
5.44619
1.97737
-5.35927
-0.144782
2.80831
-2.79175
-0.895788
-2.7075
1.88187
-2.77766
-3.36755
-1.85268
5.22024
-3.3467
-0.521736
3.33465
0.529999
-3.7535
-2.11603
3.77323
0.252824
-3.08053
6.1411
-3.06057
-5.06962
2.53623
3.59588
4.57141
-4.87254
2.47993
2.39261
-1.27666
5.88778
1.01142
5.93005
-9.08808
5.70035
7.40393
2.95858
-7.40386
0.613509
-8.47457
9.75889
-8.25804
-1.50085
5.24166
4.51724
5.5355
6.14299
-4.07333
9.60883
-0.643572
-7.61447
9.11814
-6.15956
4.95524
-11.1148
-11.0982
3.48375
-6.97165
8.5841
-1.61245
-2.47931
-5.50026
9.45096
-0.928636
-8.52233
5.63032
-5.37713
-5.28994
10.6671
-8.0711
8.79603
-2.65619
-6.13984
-6.69037
-4.03055
6.7524
1.07989
-9.90111
11.8265
-3.01444
5.92177
0.839465
5.88642
3.91988
-6.04732
2.12744
4.15121
-6.80741
2.54664
-8.59396
-4.82688
9.46515
-4.63826
-7.49952
-6.70459
-0.79493
2.02769
9.79876
-6.88712
5.30292
1.5842
3.31646
0.533702
-3.3358
-0.480169
0.337343
4.42686
-4.7642
4.10856
4.19143
3.30711
1.11975
3.81429
2.03644
-3.79466
-0.358296
-4.01235
1.45934
-1.67756
-3.42872
4.88806
-3.89183
0.463114
-2.62922
-3.43783
6.06705
-4.518
3.05155
3.08955
5.04324
-4.77312
1.33529
-2.35631
-2.41682
2.55654
-4.2341
1.8264
3.06166
4.14475
0.573839
4.78762
4.67753
-7.43918
0.525547
8.13022
-6.8475
1.68171
5.87057
-6.98463
0.28004
-5.93005
1.12855
-6.34903
-5.58974
4.61008
-8.11697
-6.50472
6.00472
0.0176402
-5.69955
-1.63392
-3.77346
-2.20491
-4.24986
-1.88384
-4.1498
-5.95717
-1.14824
-4.80892
4.42913
-4.47137
-2.20455
4.78996
0.967087
-6.72079
6.3175
-5.3583
4.87826
0.0447217
3.68568
4.36364
1.93285
-2.40902
4.34187
-3.6183
5.75676
-7.3604
3.74209
4.07539
-6.44649
-3.28501
5.02345
4.19824
5.53873
8.78951
-12.2984
3.50889
-12.2318
11.0889
1.14288
-17.3706
5.13884
-8.58113
2.71081
0.237683
2.70569
0.647866
2.31948
-2.96735
-2.27144
-2.27246
-2.15712
-3.24126
5.39838
1.05197
-3.19194
2.13997
-3.39919
4.45116
0.0320869
-3.22402
5.13716
-2.81769
5.37485
-3.3671
2.00775
3.12364
5.38115
-2.25751
4.16355
-1.62451
1.71772
-3.97523
-1.52354
-2.94538
4.97947
-3.12168
3.58479
-0.215275
3.80006
-3.93333
0.947566
-0.626216
3.56521
3.67641
4.13971
-3.01996
2.79108
-4.4156
-1.18415
-3.84176
-0.780101
0.943002
-4.92367
3.98067
7.46656
-6.52356
-5.19643
9.87076
-4.67433
7.80019
-5.34089
-2.45929
-4.27462
-4.47623
3.87342
1.87248
9.67267
0.271844
-5.61274
-4.86933
-3.99917
3.23706
2.14637
-2.12635
3.81574
2.01182
-0.150229
0.629725
1.18996
1.88126
-1.25153
0.155056
1.7262
-1.39604
2.11349
0.694816
-2.16042
0.102704
-1.39443
3.2763
0.979667
-2.014
0.762461
1.10947
-3.39748
4.87402
-2.62501
-2.24901
5.98349
0.947613
-3.57262
4.24288
-3.74198
2.27807
-3.17346
-1.29455
-5.03653
-3.4392
-2.36475
4.50471
-3.03364
5.01101
1.13716
-4.86622
6.00339
-3.35334
1.50066
-3.05979
3.7546
-1.09781
-1.96198
2.61521
2.60503
-2.80091
0.0934048
-0.185699
2.18928
-2.37498
-0.588379
-2.47661
-4.58322
4.83604
-2.0911
4.57103
2.25076
-1.90266
6.47369
1.85251
-3.75517
-3.2171
-3.73884
-1.36256
3.20884
-0.999429
-5.79321
-7.13927
5.81982
0.110224
-9.08384
10.2784
-1.19454
-5.44069
-0.259662
5.50132
-7.52803
0.720621
-4.98139
5.297
6.30842
6.41865
-8.52712
0.00479342
-4.83213
1.37761
-6.20974
5.89484
-3.19462
6.67837
-7.3813
5.17675
-6.41421
5.17752
-1.03222
5.5908
-3.46337
2.17008
-6.20063
-5.12074
6.97578
-3.57843
7.81524
-4.0742
11.8894
-7.08864
6.91966
4.96978
-1.38171
-5.94776
-6.84183
5.46012
0.0778306
5.96425
4.86149
-2.82505
4.50319
2.20329
-4.55959
-2.03081
-6.39764
1.83805
-3.30808
-1.85968
3.69773
3.18356
3.71726
1.28091
-3.23709
6.63003
-7.42496
-1.99177
-3.59797
6.76003
-1.29991
4.0299
-7.62787
-2.31913
7.29674
-3.31096
-3.98578
-2.09245
-4.41227
4.13137
-8.54364
3.9856
-5.61952
1.95924
-10.5404
-4.76155
-4.98489
-1.55218
-3.80612
-7.10232
5.55014
-1.96348
4.35401
-8.99691
5.68594
-2.09201
7.64215
-3.3863
-0.863562
3.85476
1.0235
8.66565
1.42347
-4.70848
-2.21976
4.63902
-2.41926
1.0173
-3.5002
1.13882
2.41937
3.56412
-6.57355
0.127067
-4.58142
-4.02939
8.22763
5.84138
13.3079
1.00954
9.62185
-1.39422
10.6314
4.14451
4.6251
-3.65091
7.1598
0.329762
4.07186
-0.836476
2.84422
1.86921
1.90951
0.882244
2.22219
1.45422
3.16976
0.202409
-2.07006
4.60698
-8.60615
-1.00575
-8.01638
1.17303
5.76033
-4.5873
3.47777
-1.33139
1.05851
0.426112
-1.79762
1.3715
-2.6693
-1.94785
-0.221642
-1.48479
2.24726
1.79151
-2.02561
-0.64369
0.245428
-3.68463
2.92803
-2.83462
-0.229596
5.77379
-2.59252
0.217545
-1.09186
-2.25906
-2.76544
2.66274
6.14995
0.323745
3.08938
5.15979
3.04375
0.218708
4.48238
-6.09482
-4.11159
-6.09003
-0.195185
5.30613
2.03384
7.76492
7.00362
5.70371
-1.92416
-9.34912
7.10218
0.0576225
8.24506
-4.25928
-4.28436
4.01984
1.73692
-4.03748
-1.58204
-5.8664
-5.80878
-1.2958
6.98175
-7.36985
6.50629
4.30137
0.507552
-4.50575
-0.479147
4.23698
0.388123
11.0195
-1.16619
-6.70528
7.87147
-4.59414
3.58838
1.13204
2.6837
2.50355
1.17215
-5.53313
-10.1204
-1.84699
-1.5505
-4.096
0.402682
-2.19419
6.19804
-2.60966
3.73875
5.26182
6.32033
-1.74789
-4.77567
6.42222
-2.68348
3.63685
)
;

boundaryField
{
    wall-4
    {
        type            calculated;
        value           uniform 0;
    }
    velocity-inlet-5
    {
        type            calculated;
        value           uniform -3.75095;
    }
    velocity-inlet-6
    {
        type            calculated;
        value           uniform -5.62643;
    }
    pressure-outlet-7
    {
        type            calculated;
        value           nonuniform List<scalar> 8(6.34028 6.22323 6.61634 6.74401 6.61601 6.67877 6.6049 6.6898);
    }
    wall-8
    {
        type            calculated;
        value           uniform 0;
    }
    frontAndBackPlanes
    {
        type            empty;
        value           nonuniform 0();
    }
}


// ************************************************************************* //
