/*--------------------------------*- C++ -*----------------------------------*\
| =========                 |                                                 |
| \\      /  F ield         | OpenFOAM: The Open Source CFD Toolbox           |
|  \\    /   O peration     | Version:  4.0                                   |
|   \\  /    A nd           | Web:      www.OpenFOAM.org                      |
|    \\/     M anipulation  |                                                 |
\*---------------------------------------------------------------------------*/
FoamFile
{
    version     2.0;
    format      ascii;
    class       volVectorField;
    location    "9";
    object      U;
}
// * * * * * * * * * * * * * * * * * * * * * * * * * * * * * * * * * * * * * //

dimensions      [0 1 -1 0 0 0 0];

internalField   nonuniform List<vector> 
918
(
(0.98496 -0.00137416 0)
(0.00463388 2.96636 0)
(-0.00369379 1.68377 0)
(0.978956 0.00289297 0)
(-0.00358456 1.65752 -2.9928e-22)
(-0.00696292 2.94878 -8.10061e-19)
(0.854919 1.18735 2.99866e-19)
(0.522697 0.270499 -3.55857e-21)
(0.999896 -0.00032822 0)
(0.0406957 1.53281 0)
(-0.00719282 1.54281 0)
(0.874694 -0.000355542 0)
(0.0116486 2.92976 0)
(0.0018786 2.79548 0)
(-0.0195203 3.15007 4.71002e-19)
(0.000682634 1.59109 -8.07959e-21)
(0.633523 0.124968 2.17837e-19)
(0.209784 1.73077 2.07445e-19)
(0.961259 0.0104021 0)
(-0.00023339 1.58171 0)
(0.216243 0.316912 -1.9806e-19)
(1.00191 -0.0051481 0)
(1.00079 -0.00972878 0)
(0.976034 -0.00488329 0)
(0.794693 -0.0251837 0)
(0.0220295 2.62538 0)
(-0.0150396 2.9101 2.66114e-19)
(-0.0095995 1.69627 0)
(-0.00961203 1.76676 0)
(-0.0117978 1.70302 0)
(0.00295609 1.79689 0)
(0.000484308 1.67628 2.32269e-22)
(0.00209838 1.59672 0)
(-0.0206124 2.98743 -2.83075e-23)
(-0.0170837 3.00555 6.4387e-19)
(0.00208379 3.00041 0)
(0.911893 0.00221723 0)
(0.36354 0.976228 2.44187e-20)
(0.818598 1.23203 -4.12857e-19)
(0.975144 1.04623 3.94152e-19)
(0.673588 1.37261 -6.61383e-20)
(0.71671 1.31807 3.75158e-19)
(0.564217 0.329409 3.46995e-21)
(0.561998 0.238718 0)
(1.1979 0.59539 0)
(0.512896 0.341858 1.62144e-20)
(0.478941 0.259796 -1.68359e-20)
(0.906259 -0.00400533 0)
(1.00047 0.000175728 0)
(1.00002 0.000222982 0)
(1.00389 -0.00760816 0)
(1.00106 -0.00158009 0)
(1.00014 -0.000361092 0)
(0.0151491 1.55366 -2.27783e-19)
(0.0235725 1.65351 0)
(0.0666233 1.55591 0)
(0.00872471 1.64819 0)
(0.0258756 1.49336 0)
(-0.00456828 1.60422 0)
(-0.00957892 1.63464 0)
(-0.00525238 1.53095 0)
(-0.0125462 1.65539 0)
(-0.00755391 1.55401 0)
(0.936846 0.00208211 0)
(0.930206 0.00475606 0)
(0.882094 -0.00255262 0)
(0.92325 0.0119482 0)
(0.851686 0.00950213 0)
(0.0155449 3.00047 2.9066e-19)
(0.0120506 3.00715 0)
(0.00677048 3.0033 0)
(0.0141842 2.99675 3.20884e-24)
(0.00866531 2.95829 -4.39087e-19)
(0.015178 2.98191 0)
(0.011314 2.90384 0)
(0.0260253 2.93086 5.61204e-25)
(0.00439347 2.82626 0)
(0.0326196 2.9153 0)
(-0.00677428 2.74438 0)
(0.294619 3.53394 0)
(-0.147823 3.60575 0)
(0.130365 3.243 -4.34753e-19)
(-0.0146478 2.99057 0)
(0.0089685 1.76422 0)
(-0.00041217 1.67117 7.96839e-21)
(0.000554862 1.59115 -1.265e-20)
(0.688203 0.170812 -7.46891e-20)
(0.658162 0.0883681 -7.25622e-20)
(0.667387 0.197184 -2.25679e-19)
(0.626655 0.148063 -1.53008e-19)
(0.216578 1.28483 0)
(0.241286 1.76245 -2.24815e-19)
(0.395174 1.66561 3.76345e-19)
(0.984685 0.0132142 0)
(0.930009 0.0133888 0)
(1.00054 0.000190135 0)
(1.00314 0.00980655 0)
(1.00251 0.0101674 -4.01106e-19)
(0.991602 0.00993626 3.07366e-19)
(-0.00211439 1.66431 0)
(0.00207768 1.5828 0)
(-0.0102077 1.718 0)
(-0.00657647 1.67816 0)
(-5.01986e-05 1.58616 0)
(0.31395 0.334039 6.10293e-20)
(0.352169 0.272807 0)
(0.994349 -0.00875129 0)
(0.956338 -0.00653304 0)
(0.893263 0.0200324 0)
(0.864299 0.0152699 0)
(0.831076 -0.00815453 0)
(1.04441 0.0016281 0)
(0.82504 0.0285262 0)
(0.740733 -0.00206751 2.90591e-19)
(-0.0352504 2.86664 1.30879e-19)
(0.0449431 2.90671 0)
(0.0576154 2.88296 0)
(-0.00664301 2.69531 0)
(-0.0134056 2.98503 2.43809e-19)
(-0.018156 2.89531 0)
(-0.0157043 2.98828 -7.74361e-19)
(-0.0130996 2.92518 2.68567e-19)
(-0.00748201 1.79259 0)
(-0.00146838 1.7819 0)
(0.000541282 1.67931 -2.02975e-22)
(0.000779023 1.67202 0)
(-0.000203687 1.59013 0)
(0.959639 0.00431861 0)
(0.915509 0.00427306 0)
(0.891605 -0.00773395 0)
(0.956843 -3.03873e-05 0)
(0.90323 -0.00162888 0)
(0.493015 1.17297 -3.21914e-20)
(0.566924 1.22451 0)
(0.251455 0.85914 5.51894e-21)
(0.233363 0.675196 0)
(0.937702 1.09256 -1.12669e-19)
(1.05202 0.892882 2.36632e-19)
(0.366946 1.66525 0)
(0.517438 1.51909 0)
(0.576238 1.49024 0)
(0.137702 0.195523 -7.37565e-20)
(0.600981 0.297675 0)
(0.591944 0.218092 4.4122e-20)
(1.03726 0.946371 0)
(1.11903 0.800363 0)
(1.13923 0.751221 -2.09582e-19)
(1.18032 0.644967 0)
(1.22806 0.436836 2.68481e-20)
(0.951435 0.00138173 0)
(0.946919 -0.00116679 0)
(0.899962 0.000726547 0)
(0.982762 -0.00959164 0)
(0.961262 -0.00744529 0)
(0.92949 -0.00641401 0)
(0.99979 0.00175631 0)
(1.00095 0.00218754 0)
(0.999618 0.00107609 0)
(0.00907225 1.62611 1.23229e-19)
(0.0441645 1.53977 0)
(-1.06724e-05 1.64326 2.02157e-19)
(0.0104632 1.55792 -1.72302e-19)
(0.0923934 1.74401 -1.70485e-19)
(0.0322181 1.68691 0)
(0.134405 1.66415 0)
(0.00633768 1.62783 0)
(0.0136955 1.48868 0)
(-0.0103188 1.68671 -5.43751e-22)
(-0.00429317 1.62171 0)
(-0.00454098 1.6856 -2.71736e-20)
(0.000126026 1.60885 5.16984e-20)
(-0.00902387 1.62342 0)
(-0.012669 1.62984 0)
(-0.00261539 1.50287 0)
(-0.00949163 1.66568 0)
(-0.00370902 1.56519 0)
(0.993507 0.0109839 0)
(0.952845 -0.000207376 0)
(0.978699 0.0058111 0)
(0.930347 0.00215707 0)
(0.88911 0.000689369 0)
(0.946312 0.00637258 0)
(0.938635 0.000813355 0)
(0.884596 0.00205703 0)
(0.00392885 3.06536 -2.40428e-21)
(0.0163936 3.05765 0)
(0.0151979 2.96909 0)
(0.00878216 2.87701 0)
(0.952461 3.9606 0)
(1.29633 3.22623 4.75738e-19)
(0.0663807 3.08125 0)
(-0.0242461 2.91283 0)
(0.00505438 1.77464 0)
(0.0117046 1.75922 0)
(0.0077161 1.76054 0)
(0.00520815 1.78537 1.86862e-21)
(0.0148372 1.77118 0)
(0.00370486 1.78263 0)
(-0.000446258 1.59553 1.37907e-21)
(-0.00339623 1.68279 1.60697e-20)
(-0.000249755 1.67467 1.29148e-20)
(-0.00103204 1.58809 0)
(0.714609 0.127171 1.10238e-19)
(0.670318 0.0535884 -1.06515e-19)
(0.184505 1.40135 0)
(0.296278 1.20748 -1.03368e-19)
(0.127887 1.44888 -3.00377e-19)
(0.152273 1.34797 2.99776e-19)
(0.885371 0.00418921 0)
(0.954731 0.00859889 0)
(0.967569 0.0162183 0)
(0.905424 0.0111916 0)
(-0.00301088 1.67131 0)
(-0.00128358 1.66993 0)
(0.00225021 1.57606 0)
(0.468071 0.353304 1.48062e-19)
(0.417121 0.343176 -1.82727e-19)
(0.416898 0.261556 0)
(1.16684 0.0843022 -1.90039e-21)
(1.15161 0.037706 0)
(1.07709 0.0386888 0)
(0.994185 0.00990118 0)
(0.73846 0.104355 0)
(0.775677 0.0658427 -4.67071e-19)
(0.705514 0.0373831 1.78468e-19)
(0.00971706 2.9836 1.68818e-19)
(-0.0314838 2.86962 2.1029e-20)
(0.00163489 3.04971 -5.20587e-21)
(0.0198288 3.04375 1.94597e-19)
(-0.0153139 2.99613 8.94362e-21)
(-0.0129429 2.94927 -3.63133e-23)
(-0.0175017 3.01213 -1.68705e-19)
(0.0136527 3.02511 1.21163e-19)
(0.00633673 3.036 -1.9386e-19)
(0.975738 0.00363166 0)
(0.970752 0.00582363 0)
(0.91998 0.00337312 0)
(0.947136 0.00420695 0)
(0.944661 -0.00443666 0)
(0.88473 -0.00254353 0)
(0.950511 0.000717205 0)
(0.945351 -0.00310138 0)
(0.895741 -0.00632773 0)
(0.761076 1.44793 1.06252e-19)
(0.805272 1.53604 0)
(0.0694679 0.0146926 -1.11255e-20)
(0.158732 0.432119 -1.3161e-19)
(0.130978 0.564749 -2.84394e-21)
(0.146076 0.280738 -8.16382e-21)
(0.42594 0.742843 4.44638e-19)
(0.274505 0.484104 1.3959e-19)
(0.656288 0.236076 1.65494e-19)
(0.62959 0.271729 3.99815e-20)
(0.611991 0.18899 8.48743e-20)
(1.22026 0.482903 1.24219e-19)
(1.24363 0.277549 1.33048e-19)
(0.00400279 1.65155 7.95891e-20)
(0.0188271 1.58669 0)
(1.02506 0.0230941 0)
(1.00134 0.0100581 0)
(0.965076 -0.00086864 0)
(0.0108503 3.074 0)
(0.0203445 2.9447 3.29495e-19)
(0.0168262 2.9566 0)
(0.00605855 2.85177 -3.28406e-19)
(0.00580674 3.09144 7.58698e-20)
(0.00574461 3.0822 0)
(0.89708 1.83383 -9.57512e-20)
(1.26221 2.36067 2.0838e-19)
(0.879018 1.92811 -5.59635e-19)
(0.0205504 2.98572 -1.21885e-19)
(0.0356198 3.00837 0)
(-0.0309699 2.88355 0)
(-0.00154936 1.67756 -2.64275e-21)
(-0.00267904 1.68466 -3.69802e-20)
(0.00108167 1.60286 -2.57951e-21)
(0.263477 1.29209 3.26364e-19)
(0.338795 1.09303 -2.23313e-19)
(0.0332277 1.58476 2.03526e-19)
(0.0833864 1.52602 -2.49739e-19)
(0.0883489 1.45014 2.93381e-20)
(0.00386676 3.11699 -4.32784e-19)
(0.0162038 3.11738 4.86357e-19)
(-0.00914823 2.98081 2.10943e-19)
(-0.00300796 2.97813 -1.86016e-19)
(-0.0218588 2.88305 -2.14955e-19)
(0.00798145 3.09867 -5.55978e-19)
(0.00176749 3.10602 5.57981e-19)
(0.43923 0.587963 0)
(0.348718 0.444391 1.14858e-19)
(0.0779749 0.0426021 -2.97363e-20)
(0.420603 0.886628 3.76796e-19)
(0.330828 0.696103 -5.73448e-19)
(1.24507 0.177487 -2.35182e-20)
(1.24204 0.324064 0)
(1.23049 0.130988 5.27481e-20)
(-0.00103637 1.69481 -6.76342e-22)
(0.00908958 1.67147 0)
(0.0132837 1.61508 0)
(0.317555 1.15451 -1.12472e-19)
(0.340281 1.02679 -2.5632e-19)
(0.357654 0.915626 4.64673e-19)
(1.006 -0.011234 0)
(1.00605 -0.00587754 7.40065e-20)
(-0.00532383 1.79256 0)
(-0.00828191 1.79686 0)
(1.00201 0.00343404 8.53704e-22)
(1.00122 0.0113092 1.50205e-19)
(0.00419466 1.78602 -2.50574e-21)
(-0.000943712 1.78564 0)
(0.0388441 3.18154 3.88101e-20)
(0.372095 3.47537 0)
(1.11952 0.635233 3.01753e-20)
(1.01655 0.0178526 -6.70114e-22)
(1.0068 -0.0101361 0)
(1.00229 -9.86386e-05 8.33517e-23)
(0.0376614 1.81384 0)
(0.0385314 1.75138 0)
(-0.013704 1.79177 0)
(-0.00580578 1.7864 3.72663e-20)
(0.00206331 1.79044 1.8867e-20)
(0.996269 0.0112975 6.9309e-22)
(1.04423 0.0125233 0)
(1.06892 0.0164087 0)
(0.0127988 1.76592 0)
(0.00711446 1.78259 0)
(-0.00168364 1.79496 0)
(0.109176 1.79652 -1.21281e-19)
(1.01197 -0.0168539 0)
(1.005 -0.0279708 0)
(1.00467 0.0013076 9.26513e-20)
(1.00353 -0.00383054 -1.12144e-19)
(1.00165 -0.00271374 0)
(0.00339205 1.77393 0)
(-0.000490557 1.79165 0)
(0.0022528 1.78286 0)
(-0.00193924 1.79534 0)
(-0.00228434 1.79045 0)
(-0.00317171 1.79387 0)
(1.02433 0.00698091 0)
(1.01837 -0.00219507 -5.29928e-22)
(0.733942 1.15362 2.05028e-19)
(1.00251 0.00167233 -9.31171e-20)
(1.00388 0.00644002 1.11851e-19)
(1.00118 0.00227823 0)
(1.01554 0.0163564 8.94545e-20)
(1.00893 0.0136731 -1.1284e-19)
(1.00375 0.0213194 0)
(0.00535517 1.78516 0)
(0.00234566 1.78543 7.12969e-21)
(0.00286843 1.78297 -5.27611e-21)
(1.17023 0.24109 -3.16574e-20)
(1.10414 0.0769508 0)
(0.068589 3.08199 -2.11658e-19)
(0.0673642 2.85137 -1.74192e-20)
(0.141277 3.21169 2.90951e-19)
(0.137039 3.2374 2.2026e-21)
(0.132921 3.23782 0)
(0.0227512 3.13879 4.70432e-20)
(0.0781791 3.16802 2.05611e-19)
(0.0738324 3.19218 -9.21837e-20)
(0.0308656 3.12739 0)
(0.697887 0.341497 0)
(0.609993 0.404044 0)
(1.06796 0.656845 -1.11893e-19)
(1.08857 0.784574 1.70698e-19)
(1.11366 0.532094 0)
(1.18513 0.489768 0)
(1.01648 0.0172188 -1.67789e-19)
(1.01496 0.0175382 2.12594e-19)
(1.00812 0.00214238 0)
(1.00905 0.00725347 0)
(1.00673 0.00146422 0)
(1.01508 0.00612733 0)
(1.00427 0.00065946 0)
(1.01914 0.0107326 0)
(1.0102 0.00923477 0)
(1.00686 0.00201171 0)
(0.0314842 1.80782 0)
(0.023131 1.81149 0)
(0.049609 1.8296 0)
(0.064307 1.81132 0)
(0.0479898 1.74851 0)
(0.0693454 1.75292 -1.35835e-19)
(0.0197566 1.76644 0)
(0.0136173 1.75885 6.74977e-20)
(0.0415562 1.77929 -6.79035e-20)
(-0.0115573 1.79542 0)
(-0.0092539 1.79603 0)
(-0.0195909 1.79066 0)
(-0.0181896 1.79284 0)
(-0.000752991 1.78713 -2.31366e-20)
(0.000721746 1.79074 2.75273e-20)
(-0.00366005 1.79251 3.38201e-20)
(0.000446778 1.79163 0)
(-0.00235321 1.79289 -4.34312e-20)
(-0.00362926 1.78998 -2.56299e-20)
(0.000868155 1.78753 1.90364e-20)
(-8.6187e-05 1.78835 -3.4686e-20)
(0.000351309 1.79048 -4.1235e-20)
(1.00668 0.0150224 1.6488e-19)
(1.00786 0.00634292 -2.04233e-19)
(0.997471 0.0237827 -1.7061e-19)
(0.985987 0.0214919 2.18258e-19)
(1.0378 0.016802 0)
(1.04008 0.00795473 0)
(1.05958 0.0303497 0)
(1.04409 0.0135813 0)
(1.05949 0.010537 0)
(1.09331 0.0717791 0)
(1.07266 0.0402926 0)
(1.08744 0.0319263 0)
(0.00913643 1.77601 -7.48925e-22)
(0.0111464 1.76334 0)
(0.0128632 1.76868 0)
(0.00249599 1.78516 8.18402e-21)
(-0.00122504 1.78405 -3.58222e-22)
(-0.00122478 1.77322 6.64958e-21)
(0.000450744 1.78179 -6.68648e-21)
(-0.00257979 1.79253 0)
(-0.00048455 1.79205 0)
(6.68087e-05 1.79063 0)
(-0.00207456 1.79498 0)
(-0.00127558 1.79481 0)
(0.160994 1.72727 2.09873e-19)
(0.232856 1.63794 1.02411e-19)
(0.431879 1.61505 -8.19608e-20)
(0.173751 1.68696 2.03165e-19)
(0.16851 1.92389 5.83538e-20)
(1.00857 -0.0192112 0)
(1.00998 -0.0260345 0)
(1.00003 -0.0308872 0)
(1.01251 -0.0074559 0)
(1.00726 -0.00727142 0)
(1.00504 -0.00878601 0)
(1.01033 -0.0145803 0)
(1.01037 -0.019338 0)
(1.02011 -0.0021636 1.63105e-19)
(1.02006 -0.00353711 -2.06259e-19)
(1.01898 0.00255976 -1.61254e-19)
(1.01463 0.0050366 2.00218e-19)
(0.72142 1.18945 0)
(0.605827 1.23768 2.31723e-19)
(0.812203 1.11354 1.52156e-19)
(0.866226 1.07585 -2.03028e-19)
(1.14381 2.63838 -1.4467e-19)
(0.830975 0.127182 1.09493e-19)
(1.10557 0.0927951 0)
(1.15211 0.167769 2.9275e-20)
(1.1474 0.152299 1.37514e-21)
(0.961466 0.130183 0)
(0.161942 2.99767 4.09446e-21)
(0.129938 2.89484 -2.67459e-19)
(0.0680513 2.34589 1.90536e-19)
(0.140707 0.200726 -7.27857e-20)
(0.324857 3.41772 -1.80408e-19)
(0.188975 3.3297 0)
(0.216192 3.35334 2.34789e-19)
(0.250478 3.06555 -1.81409e-19)
(0.340968 3.20688 0)
(0.00611622 3.12049 1.12078e-20)
(0.0174624 3.12884 -1.47371e-19)
(0.0154441 3.12421 2.16135e-19)
(0.0377513 3.14081 0)
(0.0370027 3.15228 0)
(1.22121 2.63022 0)
(0.545821 0.847513 -9.62801e-20)
(1.01401 0.921581 -8.67267e-20)
(0.917996 0.974146 0)
(0.823534 0.885761 2.87634e-20)
(1.02761 0.817176 1.17854e-20)
(0.38774 0.471759 -2.15108e-19)
(0.724669 0.341834 -8.88528e-21)
(0.734862 0.299781 8.61437e-20)
(0.611442 0.435244 6.93753e-21)
(0.574997 0.416672 -2.85802e-19)
(0.69413 0.369579 0)
(0.687512 0.423606 1.41212e-19)
(0.691549 0.413622 0)
(0.642401 0.422145 0)
(0.660438 0.362678 0)
(0.734603 0.595204 4.79755e-20)
(1.14635 0.253893 1.6326e-20)
(1.16187 0.375851 0)
(1.19672 0.346217 0)
(0.793687 0.21386 1.29385e-19)
(0.76954 0.544081 -7.31667e-20)
(0.683658 0.502148 1.16705e-19)
(0.874962 0.403939 -1.02937e-19)
(1.02003 -0.00338741 1.10727e-19)
(1.01698 0.00957628 -1.13178e-19)
(1.01737 0.00195402 0)
(1.02209 0.0106931 0)
(1.01282 0.0119452 -1.02009e-19)
(1.01641 0.0114228 1.01162e-19)
(1.01936 0.00357701 0)
(1.02167 -0.000363256 0)
(1.02005 0.00888584 0)
(1.02167 0.0118474 0)
(1.0316 0.00177578 0)
(1.02956 0.00120697 0)
(0.0214664 1.80896 0)
(0.0150634 1.79687 0)
(0.0595233 1.83092 -2.31803e-21)
(0.1031 1.80106 6.00372e-20)
(0.0783112 1.8361 1.24769e-19)
(0.0923744 1.82755 -2.04746e-19)
(0.0717978 1.84106 0)
(0.0605959 1.79004 -4.714e-20)
(0.0575989 1.79753 0)
(0.16874 1.88878 -8.38583e-20)
(0.186978 1.78729 2.35334e-19)
(0.0808135 1.8145 4.08391e-20)
(0.072961 1.80224 2.07643e-20)
(0.0811617 1.81903 -1.68759e-20)
(0.0488811 1.78746 -1.73143e-20)
(0.0988296 1.80599 0)
(0.0866206 1.82112 2.62301e-20)
(0.02259 1.79031 -1.98284e-20)
(0.0304767 1.77477 0)
(0.0242701 1.77154 7.80891e-20)
(0.0309544 1.78019 0)
(0.0147212 1.767 -7.41112e-20)
(0.0230457 1.76711 0)
(-0.0123476 1.77965 -1.76775e-20)
(0.000280158 1.78944 0)
(-0.0126884 1.79101 0)
(-0.0175347 1.77926 2.0221e-20)
(0.000330566 1.78369 -7.79418e-22)
(0.0290033 1.78492 8.01611e-20)
(0.00873088 1.78418 5.61853e-22)
(-0.00585673 1.77547 1.49442e-20)
(-0.00555277 1.77651 9.37619e-21)
(-0.0103118 1.79654 0)
(-0.00897015 1.79676 0)
(0.0151324 1.79314 4.7992e-20)
(0.0103052 1.79109 3.33016e-20)
(0.00288466 1.78821 -4.76519e-20)
(0.031781 1.8011 0)
(-0.00349352 1.77156 -2.83979e-20)
(-0.00132945 1.7829 1.25054e-20)
(-0.00606243 1.78265 -3.8662e-21)
(-0.00465401 1.77525 -1.82224e-20)
(-0.00711682 1.78543 -6.24427e-21)
(-0.00620431 1.78636 2.97396e-20)
(1.01424 0.00712837 -1.07195e-19)
(1.01334 0.0052252 1.09539e-19)
(1.01044 0.00389145 0)
(0.99014 0.0523067 1.58605e-19)
(0.984397 0.0316204 -1.83621e-19)
(0.959903 0.0266347 2.10695e-19)
(0.997549 0.0907228 -2.03511e-20)
(1.02419 0.00470454 0)
(1.02932 0.0109612 9.15388e-20)
(1.03132 0.00438138 -9.08499e-20)
(1.02805 0.033662 -5.03715e-21)
(1.02956 0.0223372 4.50826e-20)
(1.01122 0.0324959 0)
(1.00353 0.0302929 -1.6141e-20)
(1.00541 0.0249983 0)
(1.00766 0.0216689 0)
(1.0187 0.00458817 0)
(1.01679 0.00478869 0)
(1.00698 0.024775 3.43542e-20)
(1.01098 0.019086 -7.84034e-20)
(1.00962 0.0327252 -3.5661e-20)
(1.00458 0.0270199 -3.99922e-20)
(1.00722 0.033098 7.33013e-20)
(1.04794 0.0393292 0)
(1.03714 0.0854342 0)
(-0.00244897 1.76925 -9.9219e-21)
(0.00235199 1.76516 -9.31205e-22)
(-0.00116 1.76582 0)
(0.0011315 1.77587 9.82625e-21)
(0.00688152 1.77224 1.60108e-21)
(0.000780769 1.77515 -1.60734e-21)
(-0.00468275 1.78924 2.2712e-20)
(-0.00632471 1.78556 -1.33728e-21)
(-0.00706826 1.78502 6.44042e-21)
(-0.00558163 1.78654 -1.1671e-20)
(-0.00502292 1.78685 1.38903e-20)
(-0.00434023 1.78647 1.33676e-22)
(-0.00780814 1.77403 1.1542e-20)
(0.0271111 1.69546 -9.17978e-20)
(0.0172359 1.79325 -2.60774e-21)
(0.547222 1.30169 -2.25515e-19)
(0.309728 1.52537 -9.825e-20)
(0.424448 1.4522 0)
(0.482579 1.611 8.68161e-20)
(0.518766 1.48939 1.15643e-19)
(0.219573 1.67699 2.26642e-20)
(0.241215 1.68697 -2.72231e-19)
(0.324266 1.72787 2.19209e-19)
(0.361651 1.64866 0)
(0.269838 1.66646 -1.79418e-19)
(0.101891 1.72595 3.52267e-19)
(0.157251 1.71146 -1.83531e-20)
(0.108505 1.72811 -4.72581e-19)
(0.85453 2.0581 1.19706e-19)
(0.64077 1.61944 0)
(1.02333 -0.0115957 3.67081e-21)
(1.01631 -0.0226991 -3.03205e-21)
(1.02272 -0.0122375 -5.35792e-20)
(1.03449 -0.00742665 5.47682e-20)
(1.03198 -0.00905516 0)
(0.576905 0.972519 0)
(0.718235 0.86324 0)
(0.728005 1.03653 0)
(0.743392 0.860796 0)
(1.17578 2.69251 -1.39696e-20)
(0.960896 2.41622 0)
(0.737469 2.76939 -3.45675e-21)
(0.44716 2.63302 0)
(0.646376 2.75868 9.25206e-21)
(0.722438 2.75058 -5.86757e-21)
(0.836653 0.149602 0)
(0.815046 0.144513 3.17207e-20)
(0.892547 0.116622 1.61639e-19)
(0.848749 0.123151 -6.29708e-20)
(0.838234 0.0802695 -1.9764e-19)
(1.00388 0.194263 -9.69664e-20)
(0.909034 0.276276 -5.70995e-21)
(0.883373 0.254588 1.48881e-19)
(0.941013 0.1705 1.09502e-19)
(0.919975 0.143093 -2.02974e-19)
(0.905268 0.147351 2.63529e-20)
(0.93337 0.202986 -5.19146e-20)
(0.910232 0.171178 0)
(0.965064 0.139936 9.6741e-20)
(0.987466 0.146174 0)
(0.981046 0.167011 0)
(1.03969 0.107307 3.08126e-20)
(1.0151 0.149015 -5.61659e-21)
(1.00336 0.203789 -1.56529e-20)
(1.05265 0.186917 0)
(1.00197 0.0255239 8.14909e-20)
(1.00411 0.0327791 9.55574e-20)
(1.00697 0.0288142 -8.00618e-20)
(1.00952 0.0440677 -6.45755e-20)
(0.999357 0.0529801 -1.11736e-19)
(0.953721 0.118108 0)
(0.973773 0.0915232 0)
(0.955844 0.0388347 -7.55137e-20)
(0.916508 0.0500273 3.21932e-20)
(1.00208 0.0847482 9.25427e-20)
(1.00615 0.10488 -9.40423e-20)
(1.01841 0.134747 8.44185e-20)
(1.0036 0.131423 0)
(1.01465 0.0874684 0)
(1.0026 0.0690732 -3.9873e-20)
(1.00837 0.0770875 -7.40775e-20)
(0.99873 1.20101 -1.56936e-19)
(0.992142 1.6614 1.54833e-19)
(1.28815 2.75857 5.04995e-20)
(1.27973 3.05252 -2.77956e-20)
(1.25926 2.74712 1.70159e-19)
(1.3059 2.70156 -1.28677e-19)
(1.16069 2.36147 2.1233e-20)
(1.27627 2.9648 7.0941e-20)
(1.28707 2.96452 -8.41431e-20)
(1.25881 3.2118 -1.28698e-19)
(1.3728 2.93512 1.45221e-19)
(1.30848 2.85791 0)
(0.546311 0.863061 -6.41202e-21)
(0.12835 1.34145 1.36983e-19)
(0.536767 0.550288 1.46017e-19)
(0.330345 0.337297 1.51871e-19)
(0.564788 0.452805 1.61001e-19)
(0.548647 0.494976 -2.5436e-19)
(0.54154 0.520474 2.08206e-19)
(0.509251 0.489311 -8.56785e-20)
(0.479712 0.405525 1.96203e-19)
(0.804282 0.245168 -7.1621e-20)
(0.758865 0.297338 0)
(0.767082 0.256334 4.79102e-21)
(0.659717 0.508257 7.34103e-20)
(0.660371 0.480858 -2.70095e-19)
(0.582489 0.505744 5.43858e-21)
(0.608821 0.466363 0)
(0.622426 0.757781 6.57892e-20)
(0.831854 0.716749 6.25153e-21)
(0.760729 0.838084 -1.22866e-20)
(0.856884 0.732808 -2.41636e-21)
(0.903575 0.789944 7.28871e-21)
(0.911752 0.784236 -7.49207e-21)
(0.776045 0.614865 -8.12947e-20)
(0.881699 0.702065 2.24975e-21)
(0.952827 0.69324 0)
(0.927544 0.661754 -4.32652e-21)
(0.940235 0.285167 2.47244e-20)
(1.04846 0.270142 2.6441e-21)
(0.982659 0.236118 3.93637e-20)
(0.927792 0.33278 -5.51025e-20)
(0.993007 0.393061 0)
(1.03206 0.38996 0)
(0.840028 0.335602 2.34551e-21)
(0.83864 0.281728 0)
(0.855073 0.256038 7.55869e-20)
(0.856385 0.260428 -2.60035e-21)
(0.868592 0.401694 2.78754e-19)
(0.827973 0.476107 7.38233e-20)
(0.828277 0.430597 -9.97711e-20)
(0.75749 0.431071 1.07362e-19)
(0.748572 0.426076 7.21512e-20)
(0.72952 0.409502 -7.025e-20)
(1.01965 0.014322 8.58993e-20)
(1.02739 0.00619585 0)
(1.03099 0.00628935 5.81893e-20)
(1.01888 0.0135596 -1.30736e-19)
(1.02606 0.00570353 6.41238e-20)
(1.02697 0.00234101 -1.33927e-19)
(1.02402 -0.00245336 0)
(1.02418 -0.00307604 -2.768e-20)
(1.02941 0.00126197 6.92068e-20)
(1.02323 0.00403248 -3.59836e-20)
(1.02427 0.000590708 2.63051e-20)
(-0.0151615 1.7891 0)
(-0.0122955 1.79039 0)
(0.0111639 1.79584 0)
(-0.00560486 1.79115 0)
(0.0338514 1.80454 1.87284e-20)
(0.0281086 1.80851 -3.6821e-21)
(0.0426209 1.80189 -1.57347e-20)
(0.0351425 1.81491 -3.68459e-21)
(0.0244602 1.80506 -2.56502e-20)
(0.0244807 1.80595 1.8853e-20)
(0.0372475 1.8098 -8.51985e-21)
(0.0276834 1.81876 -2.6985e-21)
(0.0127486 1.8023 -2.69342e-22)
(0.00288045 1.79714 -2.84259e-21)
(0.0242088 1.77034 -8.25653e-20)
(0.0287085 1.7602 0)
(0.0491423 1.75441 5.08778e-20)
(0.0473898 1.79071 3.28009e-20)
(0.0974237 1.76991 -3.6876e-20)
(0.11567 1.73574 0)
(0.124091 1.72289 -2.56979e-19)
(0.161539 1.75959 1.80653e-19)
(0.0897351 1.76639 -9.89058e-20)
(0.0644823 1.75118 5.52945e-20)
(0.0426568 1.73291 0)
(0.00892666 1.7837 -5.85588e-20)
(0.00192696 1.77926 -7.11245e-20)
(0.002676 1.7855 0)
(0.0151698 1.78365 -1.94091e-21)
(0.0217438 1.78719 2.90272e-20)
(-0.0124585 1.7822 2.83614e-21)
(-0.0104394 1.7853 -4.70497e-20)
(-0.00854528 1.77853 1.21081e-20)
(-0.0112021 1.76914 1.74464e-20)
(-0.0101182 1.77793 0)
(-0.00780735 1.77991 0)
(-0.00320035 1.79499 1.19826e-20)
(-0.00251473 1.7853 -3.67632e-21)
(-0.00583896 1.78314 0)
(-0.00695116 1.7961 9.45572e-21)
(-0.00522272 1.79556 -1.8348e-20)
(1.01529 0.0124974 0)
(1.01794 0.0121316 -8.5008e-21)
(1.01293 0.0163713 -6.28762e-20)
(1.01523 0.0231371 0)
(1.01489 0.024255 0)
(1.01628 0.00706322 -1.94252e-21)
(1.01806 0.00636977 1.02765e-19)
(1.01643 0.00738634 1.2644e-19)
(1.01734 0.00692715 0)
(1.01677 0.00689634 0)
(1.01371 0.0129049 6.30798e-20)
(1.01401 0.00958118 0)
(1.01738 0.00905115 0)
(-0.0113245 1.77274 0)
(-0.00917835 1.7674 1.35952e-21)
(-0.00856974 1.76541 6.44549e-21)
(-0.00548729 1.78475 0)
(-0.00739014 1.77677 8.43223e-21)
(-0.0060632 1.78507 -3.70435e-21)
(-0.00431003 1.78918 0)
(0.0360703 2.21511 0)
(-0.0544459 1.8395 1.21415e-20)
(-0.00236646 1.9651 0)
(-0.0656583 1.75835 -9.52703e-20)
(0.0915508 1.40411 0)
(0.0314053 1.62715 6.46571e-20)
(0.954043 2.8592 -1.14188e-21)
(0.853244 2.24532 -1.49051e-19)
(0.914479 2.07758 -1.58347e-19)
(0.656057 1.72622 9.95142e-20)
(0.535907 2.37048 0)
(0.608378 2.50562 0)
(0.813313 1.99286 0)
(0.793888 1.70268 -3.08796e-19)
(0.272201 2.46592 -1.44773e-19)
(0.447748 2.39861 -4.43452e-20)
(0.379349 2.59333 3.47988e-20)
(0.537492 1.53971 0)
(0.599448 1.58393 0)
(0.582663 1.48082 -1.31276e-19)
(0.483454 2.11448 0)
(0.814663 0.940159 0)
(0.583536 1.00002 1.38449e-21)
(0.643192 0.919637 -1.25844e-21)
(0.927034 0.992904 0)
(0.7518 1.12298 9.01394e-21)
(0.78695 0.893133 1.42717e-20)
(0.799827 0.966949 0)
(0.772621 0.915191 -3.76271e-20)
(0.715667 1.03239 0)
(0.675251 0.948973 0)
(1.16623 2.89266 3.10913e-20)
(1.20638 2.90315 1.10578e-19)
(1.11112 2.58819 -2.46076e-19)
(1.04044 2.62359 4.72672e-20)
(1.11571 2.86448 0)
(0.999747 2.88645 -5.60342e-20)
(1.01504 2.58404 1.31475e-20)
(0.854692 2.33032 -5.71615e-21)
(0.492919 2.10914 0)
(0.64234 1.06895 1.37398e-19)
(0.635456 1.05901 0)
(0.866486 0.194115 0)
(0.826273 0.175945 0)
(0.773644 0.187556 0)
(0.869971 0.211562 -1.19009e-19)
(0.816041 0.221271 7.50662e-20)
(0.915309 0.0490136 -6.59513e-20)
(0.910571 0.0922662 0)
(0.887714 0.103026 3.06499e-20)
(0.873613 0.0712129 1.25251e-19)
(0.883184 0.050314 -7.69886e-20)
(1.17569 3.34116 -3.96163e-19)
(1.2218 3.27459 0)
(1.13738 3.35998 -7.78242e-19)
(0.625751 3.52963 6.79784e-19)
(0.817267 3.09504 1.14079e-19)
(0.503155 0.97128 1.32084e-19)
(0.43687 1.02308 0)
(0.305011 0.576655 -3.3012e-20)
(0.379122 0.720264 1.57508e-19)
(0.50318 0.535471 -4.35221e-20)
(0.48924 0.563111 5.02574e-20)
(0.602051 0.508031 1.07462e-19)
(0.62631 0.525855 0)
(0.589886 0.608761 0)
(0.555206 0.556686 0)
(0.922608 0.581888 -2.19006e-20)
(0.822743 0.522011 -7.07035e-20)
(0.843337 0.566477 3.31982e-20)
(0.87929 0.494657 -5.25391e-20)
(1.01366 0.46161 0)
(0.994921 0.54444 -1.97206e-21)
(0.785484 0.387659 -1.58536e-19)
(0.789567 0.377606 -1.77214e-19)
(0.762121 0.380844 1.23944e-19)
(0.756546 0.362642 -1.38322e-19)
(0.819085 0.315305 -1.01755e-19)
(0.779487 0.319467 1.25277e-19)
(1.02309 0.00762941 -6.70839e-20)
(1.02201 0.00574827 1.38947e-19)
(1.0197 0.0141572 8.04499e-20)
(1.01841 0.011658 -9.80927e-20)
(1.01222 0.0121015 0)
(1.01754 0.00734123 -1.62976e-19)
(0.0382723 1.79768 1.14289e-20)
(0.0377339 1.79788 0)
(0.0403661 1.78711 1.03241e-19)
(0.0410316 1.79221 -9.47128e-20)
(0.0384162 1.79544 2.87884e-20)
(0.041428 1.79588 0)
(-0.00834686 1.77302 0)
(-0.0083258 1.77442 -4.75208e-21)
(-0.00933996 1.77488 4.28109e-21)
(-0.00967214 1.77462 1.04523e-21)
(-0.0111701 1.77367 -8.23072e-21)
(-0.0089746 1.77394 5.0544e-21)
(0.244242 2.1045 3.05387e-19)
(0.0505441 2.14325 -3.26672e-19)
(-0.0559578 1.7536 1.94986e-19)
(-0.0416502 2.15844 -1.01808e-20)
(0.439839 1.03717 0)
(0.185064 1.29244 1.97966e-19)
(0.275533 1.11403 -1.92237e-19)
(-0.017323 1.35847 -1.90375e-19)
(0.172009 1.38958 0)
(0.446337 1.02333 0)
(0.263551 2.34854 2.19251e-19)
(0.480208 1.89347 5.43433e-19)
(0.484508 2.0458 -3.60947e-19)
(0.472702 1.83419 -7.31502e-20)
(0.283245 2.05266 1.09875e-19)
(0.346154 1.77045 -2.76855e-19)
(0.840732 2.43244 9.96904e-20)
(0.911356 2.53646 0)
(0.861852 2.27888 1.49343e-19)
(0.995923 2.86785 0)
(1.00257 2.84632 0)
(0.571656 2.25692 2.39024e-20)
(1.04669 3.11134 1.52788e-19)
(0.902076 2.97447 -9.16227e-20)
(0.251776 1.00918 0)
(0.263428 0.821326 -7.49517e-20)
(0.452216 0.848901 -6.04829e-20)
(0.283248 2.0312 0)
(0.455519 2.79584 -8.09352e-20)
(0.389336 2.60576 0)
(0.660637 0.666573 -1.33038e-19)
(0.71639 0.659544 1.53596e-19)
(0.734548 0.594947 -1.46005e-19)
(0.603184 0.631314 -1.92513e-20)
(0.667304 0.57298 -7.6654e-20)
(1.04122 2.74484 -1.15236e-19)
(1.06049 2.74819 9.61974e-20)
(0.580237 2.11257 1.46175e-19)
(0.610325 1.71455 -1.0862e-19)
(0.984283 1.84523 1.98764e-20)
(1.09047 2.41676 -1.55927e-20)
(1.10052 2.39414 -7.46956e-20)
(0.695994 1.86913 -1.57636e-22)
(0.755077 1.33237 -2.00277e-20)
)
;

boundaryField
{
    wall-4
    {
        type            noSlip;
    }
    velocity-inlet-5
    {
        type            fixedValue;
        value           uniform (1 0 0);
    }
    velocity-inlet-6
    {
        type            fixedValue;
        value           uniform (0 3 0);
    }
    pressure-outlet-7
    {
        type            zeroGradient;
    }
    wall-8
    {
        type            noSlip;
    }
    frontAndBackPlanes
    {
        type            empty;
    }
}


// ************************************************************************* //
