/*--------------------------------*- C++ -*----------------------------------*\
| =========                 |                                                 |
| \\      /  F ield         | OpenFOAM: The Open Source CFD Toolbox           |
|  \\    /   O peration     | Version:  4.0                                   |
|   \\  /    A nd           | Web:      www.OpenFOAM.org                      |
|    \\/     M anipulation  |                                                 |
\*---------------------------------------------------------------------------*/
FoamFile
{
    version     2.0;
    format      ascii;
    class       volScalarField;
    location    "49";
    object      p;
}
// * * * * * * * * * * * * * * * * * * * * * * * * * * * * * * * * * * * * * //

dimensions      [0 2 -2 0 0 0 0];

internalField   nonuniform List<scalar> 
918
(
0.568848
1.20874
-0.000920635
0.568115
-0.0118436
1.17637
-0.488089
0.707817
0.548733
-0.0849553
-0.0162133
0.546205
1.03704
0.802492
-1.10537
-0.000755735
0.665037
-0.376514
0.548138
-0.0315293
0.738605
0.555169
0.558191
0.548582
0.616863
0.782813
0.917534
0.0298219
0.00412012
-0.000321226
-0.0108595
-0.0419001
-0.031101
1.05976
1.11035
1.13291
0.517119
0.356403
-0.342674
-0.422895
-0.416106
-0.533793
0.703307
0.701275
-0.185688
0.710924
0.71563
0.536245
0.548075
0.549023
0.550085
0.549049
0.550469
0.423604
-0.0889892
-0.123906
-0.0650874
-0.0539465
0.0766719
-0.0173226
-0.0189368
-0.014814
-0.0145816
0.466445
0.541009
0.538143
0.551
0.560484
1.14747
1.11854
1.14411
1.06102
1.07591
1.01475
0.986708
0.823682
0.844866
0.787435
0.775626
-1.52217
-2.47703
-0.522672
-0.271693
-0.0100329
0.00740503
0.0170502
0.659971
0.659598
0.666422
0.674287
1.10514
-0.343636
-0.492334
0.547949
0.546934
0.555027
0.555387
0.552554
0.550633
-0.0241882
-0.0205052
-0.0335109
-0.0314689
-0.0314289
0.727225
0.72646
0.550258
0.546847
0.565723
0.585306
0.579279
0.294353
0.618481
0.630053
0.606183
0.773952
0.767523
0.776499
0.892061
0.855046
0.955092
0.97842
0.0164378
0.000952075
-0.0095075
-0.0150881
-0.0154216
0.513006
0.504903
0.532281
0.520541
0.52299
0.273028
0.140006
0.449992
0.478274
-0.26048
-0.332419
-0.405933
-0.439328
-0.535298
0.643497
0.69373
0.691508
-0.19156
-0.129372
-0.258048
-0.0455238
-0.11198
0.526535
0.533548
0.527894
0.543612
0.53832
0.539922
0.552394
0.54946
0.55098
0.483858
0.586633
0.354942
0.315651
-0.23325
-0.136031
-0.22894
-0.0413121
-0.036787
0.0915282
0.117432
0.0646759
0.056559
-0.0310491
-0.0216642
-0.0255586
-0.0129061
-0.0145091
0.460882
0.450573
0.480125
0.487417
0.530985
0.532051
0.535386
0.533853
0.937111
0.959533
0.967969
0.941739
-3.48782
-6.53543
0.0508109
0.19111
-0.00528293
-0.00964147
0.00366425
-0.00280721
0.00196834
-0.000563786
0.014834
0.0132611
0.0172497
0.020956
0.652241
0.652297
1.01095
1.00707
0.972746
0.915408
0.536219
0.538315
0.543785
0.539304
-0.0141219
-0.0166534
-0.014437
0.717916
0.723534
0.721569
0.256589
0.169209
0.345511
0.374323
0.64538
0.634575
0.643786
0.667015
0.701897
0.98479
1.00264
1.0029
1.01092
1.05616
1.06917
1.03477
0.493038
0.502686
0.498165
0.535412
0.533149
0.53403
0.529842
0.531106
0.528583
-0.0291495
-0.388513
0.540115
0.55312
0.536072
0.539646
0.714316
0.781416
0.675194
0.684187
0.68232
0.0235388
-0.0383177
0.270935
0.238009
0.400801
0.437087
0.413954
0.908019
0.870043
0.919982
0.893137
0.853586
0.879279
-0.427404
-1.66139
-0.925196
0.548727
0.358292
0.446462
0.0365222
0.0155829
0.0208861
0.995543
1.08412
0.634553
0.823008
0.870742
0.740998
0.771987
0.828112
0.752642
0.787139
0.821335
0.803404
0.600867
0.553992
0.55878
0.843551
0.897069
0.146547
0.0925935
0.0366441
0.134992
0.188389
0.163436
1.03216
0.950662
1.02287
0.546464
0.54708
0.0034106
0.000975006
0.551301
0.551501
-0.00562147
0.0070705
0.433804
-0.798788
0.119952
0.539479
0.529668
0.546683
-0.0755459
0.385027
-0.0168321
0.0749948
0.0160956
0.542835
0.477404
0.438672
-0.00028164
-0.00543603
-0.0262474
-0.217634
0.543977
0.542128
0.546197
0.547235
0.547877
-0.016564
-0.00491774
-0.00590911
-0.0257141
-0.021517
-0.0320242
0.511179
0.529103
-0.155853
0.546324
0.548532
0.548342
0.541241
0.547079
0.545017
0.00493175
-0.00539708
-0.00861414
0.243416
0.370636
0.673919
0.771148
0.64687
0.413475
0.161344
0.579205
0.642012
0.550399
0.700598
0.688454
0.705755
0.192062
0.0299714
0.194242
0.134486
0.537676
0.536089
0.528073
0.525007
0.541646
0.539827
0.544234
0.541196
0.544097
0.545535
-0.0269277
-0.0536162
-0.0666954
-0.141171
0.340525
0.608543
0.276387
0.317481
0.161072
-0.0112756
-0.0131803
-0.0168654
-0.022864
0.0332489
0.000306259
0.0727281
0.0706357
0.0405954
0.011302
0.0226806
0.00553932
0.0104964
0.536044
0.534504
0.540908
0.549738
0.486965
0.490682
0.456056
0.476571
0.461522
0.403151
0.438142
0.41313
0.00178251
0.0053622
-0.000307515
-0.00228771
0.00263222
-0.00546295
-0.0121548
-0.00846431
-0.00589704
-0.0134088
-0.0201441
-0.0170761
-0.171854
-0.282804
1.00778
0.93805
0.134332
0.532947
0.539546
0.53615
0.54119
0.544252
0.545093
0.542848
0.539415
0.529616
0.531304
0.527949
0.528654
-0.0817639
-0.231075
-0.0631203
-0.130116
0.147693
0.63583
0.381793
0.308452
0.309492
0.539706
0.954881
0.713635
0.692659
0.724913
-0.342187
0.027359
-0.283324
0.306889
0.133035
0.674464
0.725169
0.748694
0.694149
0.647441
-0.229731
0.558836
-0.0510989
-0.00398274
0.20312
0.0881287
0.707003
0.672678
0.677108
0.694851
0.713893
0.676202
0.660637
0.65713
0.691044
0.695645
0.506312
0.276574
0.220839
0.187581
0.656957
0.542784
0.594398
0.509658
0.53263
0.535348
0.533905
0.516006
0.523428
0.51901
0.525227
0.528529
0.53763
0.538234
0.533222
0.535489
-0.0257469
-0.0307582
-0.00165608
-0.123075
-0.112098
-0.198428
-0.0364842
0.0819908
0.049333
0.24872
0.329516
0.0579282
-0.0361999
-0.0100463
0.0141898
0.184069
0.241446
0.0981341
0.179603
0.176635
0.155912
0.271413
0.267615
0.00164146
-0.00406841
-0.00562164
-0.0062985
0.0441123
0.112594
0.129591
0.0222496
0.0180943
-0.0104959
-0.00911725
0.000774976
-0.00284312
0.00106902
0.0359753
-0.0604612
-0.00654241
0.0142169
0.0275626
0.0230949
0.011277
0.528783
0.530896
0.530724
0.538694
0.556578
0.573019
0.528968
0.509506
0.500089
0.502884
0.476296
0.486849
0.482108
0.495191
0.516529
0.525666
0.523485
0.526263
0.509142
0.510836
0.497582
0.500876
0.47753
0.45828
0.44593
-0.0120725
0.0155738
0.0285294
-0.0231594
0.00383865
-0.00895043
0.0123498
0.0345017
0.0176905
0.00875488
-0.00051904
-0.00490686
-0.000281856
-0.0658345
0.0236124
-0.170182
-0.209355
-0.285236
0.909411
1.01708
0.830431
0.595998
0.610648
0.859008
0.941294
0.566481
0.740987
0.769058
0.617315
0.857864
0.538035
0.537583
0.535127
0.534666
0.535996
0.00963459
0.116847
0.111839
0.180306
0.293548
0.415394
0.326261
0.196852
0.326631
0.315859
0.626286
0.641753
0.598985
0.622001
0.623656
0.44167
0.516965
0.569978
0.528947
0.577057
0.595676
0.555218
0.584511
0.537957
0.490488
0.48965
0.440043
0.452118
0.430879
0.415083
0.528322
0.504685
0.51547
0.505751
0.526781
0.549582
0.544388
0.579983
0.590993
0.510571
0.467047
0.474067
0.507334
0.467751
0.483046
0.498072
0.244131
0.172386
0.213067
-0.0783635
0.00425566
-0.0714366
-0.102937
0.0155692
0.31555
-0.423131
-0.485089
-1.03892
0.505975
1.0286
0.658393
0.602007
0.711448
0.691408
0.694145
0.71931
0.719927
0.648398
0.664888
0.669481
0.626217
0.648924
0.676508
0.671199
0.543189
0.392635
0.386557
0.344591
0.219959
0.259525
0.459869
0.374981
0.30088
0.314394
0.477284
0.369775
0.436106
0.46323
0.383499
0.355632
0.550821
0.621314
0.611228
0.584133
0.50392
0.515796
0.5447
0.578496
0.603026
0.639015
0.524672
0.530611
0.531912
0.529465
0.526532
0.529478
0.529703
0.532332
0.533039
0.536176
0.535146
-0.0188322
-0.00786365
-0.0197248
-0.0298176
0.000453658
-0.00237961
0.0456119
0.0306807
0.0124779
0.0186596
-0.00672423
-0.00688986
-0.00450458
0.00309188
0.12484
0.124278
0.10508
0.0736417
0.253044
0.390568
0.455388
0.333377
0.242932
0.268265
0.28035
0.00838754
0.0358958
0.0263024
0.0608094
0.0575271
-0.0078658
-0.0107795
-0.00888372
-0.00243557
0.00842934
-0.00918188
-0.0124009
-0.00499582
-0.00806084
-0.00727621
-0.0121821
0.512102
0.505722
0.50615
0.500773
0.499855
0.512793
0.517123
0.519661
0.525049
0.526977
0.517608
0.522863
0.526448
0.013501
-0.0149317
-0.0234686
-0.00184334
-0.00956213
-0.00542734
-0.00662613
0.136626
0.0663114
0.0631751
0.0211666
-0.110843
-0.0538289
0.508646
0.511602
0.514653
0.734264
0.586984
0.512958
0.616903
0.715598
0.285134
0.477987
0.314067
0.897404
0.788678
0.934496
0.541858
0.251258
0.414373
0.469915
0.26275
0.340388
0.332181
0.231814
0.260225
0.288117
0.391884
0.283567
0.268295
0.0193047
0.214646
0.328065
0.315031
0.439705
0.506945
0.267651
0.19435
0.161456
0.615666
0.634168
0.652796
0.62349
0.645616
0.589477
0.577082
0.596282
0.605376
0.600981
-0.765135
-0.473445
-1.38798
-0.68091
-0.237634
0.538506
0.506293
0.777767
0.658262
0.707167
0.692465
0.661005
0.627256
0.643667
0.671623
0.371532
0.477155
0.454578
0.456881
0.349765
0.293044
0.589984
0.582353
0.620928
0.643592
0.611869
0.644912
0.52246
0.52221
0.521575
0.518204
0.516711
0.518812
0.0817661
0.0491848
0.0940924
0.0734119
0.0484194
0.0327858
0.0223613
0.0117792
-0.000472411
-0.00313521
0.0166389
0.0220016
0.172779
0.109599
0.0381421
0.06499
0.00568487
-0.064308
-0.0829556
0.0208455
0.115515
0.116223
0.42141
0.660474
0.480054
0.649798
0.515101
0.546568
0.503746
0.497901
0.524166
0.410827
0.484809
0.307455
-0.230698
-0.110055
0.763555
0.822095
0.597807
0.474122
0.182573
0.304164
0.566943
0.489954
0.530874
0.603288
0.592267
0.0296284
0.0539417
0.400408
0.602364
0.257397
0.189637
0.207096
0.372095
0.32565
)
;

boundaryField
{
    wall-4
    {
        type            zeroGradient;
    }
    velocity-inlet-5
    {
        type            zeroGradient;
    }
    velocity-inlet-6
    {
        type            zeroGradient;
    }
    pressure-outlet-7
    {
        type            fixedValue;
        value           uniform 0;
    }
    wall-8
    {
        type            zeroGradient;
    }
    frontAndBackPlanes
    {
        type            empty;
    }
}


// ************************************************************************* //
