/*--------------------------------*- C++ -*----------------------------------*\
| =========                 |                                                 |
| \\      /  F ield         | OpenFOAM: The Open Source CFD Toolbox           |
|  \\    /   O peration     | Version:  4.0                                   |
|   \\  /    A nd           | Web:      www.OpenFOAM.org                      |
|    \\/     M anipulation  |                                                 |
\*---------------------------------------------------------------------------*/
FoamFile
{
    version     2.0;
    format      ascii;
    class       surfaceScalarField;
    location    "49";
    object      phi;
}
// * * * * * * * * * * * * * * * * * * * * * * * * * * * * * * * * * * * * * //

dimensions      [0 3 -1 0 0 0 0];

internalField   nonuniform List<scalar> 
1300
(
3.75095
5.62643
-3.23248
3.75095
-7.75881
5.62643
-4.36612
4.36612
-0.6721
0.6721
1.87646
1.87449
-2.92942
2.92942
-2.4176
2.4176
-2.54079
2.54079
-5.24646
5.24646
-5.06894
5.06894
4.65586
-4.65586
-6.2822
6.2822
-1.02789
1.02789
-3.82134
3.82134
3.16871
-3.16871
-2.24569
2.24569
-0.128251
0.128251
-0.553128
4.30408
3.19783
3.19783
-2.00917
2.00917
-4.86691
4.86691
6.21753
-6.21753
5.24821
-5.24821
-2.01573
-2.40205
1.8282
-11.5877
-5.9306
-5.9306
-8.4402
8.4402
-2.81377
2.81265
2.94526
-2.94526
-1.86671
1.86671
-4.29686
-0.0692598
-4.29686
4.36005
0.00606764
4.36005
-0.747989
0.0758889
-0.747989
3.96479
-3.96479
0.562786
0.109314
0.562786
3.06524
-3.06524
-1.87718
3.75363
1.87378
-1.87179
6.17587
-1.87916
3.75366
-5.9754
5.9754
-3.13663
0.207212
-3.13663
2.74666
0.182765
2.74666
-6.80216
6.80216
-2.44828
0.0306785
-2.44828
2.37587
0.041734
2.37587
2.87302
-2.87302
-2.64747
0.106673
-2.64747
2.42677
0.114024
2.42677
0.353664
5.27277
-5.98009
8.79275
-5.27277
0.0263041
5.20825
0.0382164
5.20825
-5.10585
0.036917
-5.10585
5.01222
0.0567167
5.01222
4.72998
-0.0741179
4.72998
-4.78265
0.126787
-4.78265
-3.40125
-4.04254
-6.42924
0.147046
-6.42924
-1.08344
0.0555469
-1.08344
0.960931
0.0669601
0.960931
-3.65693
3.65693
-4.12382
0.302478
-4.12382
3.12255
0.0461611
3.12255
1.86902
1.88193
5.61997
-5.61997
2.45126
-2.25681
0.0111138
-2.25681
-2.26372
-2.98449
2.26372
-0.0180292
-0.357212
0.228962
-0.357212
3.16014
0.0376885
3.16014
2.27094
0.155829
-2.27094
0.261776
3.25223
-3.25223
1.34109
0.668076
1.34109
-5.5663
5.5663
4.9552
0.0570204
-4.9552
0.088286
6.15666
0.0608716
6.15666
-6.19986
-0.0176709
-6.19986
2.57983
-4.98188
-2.56359
6.1055
0.176692
-6.1055
0.174903
2.91612
0.0291444
2.91612
-2.91859
2.91859
-2.98442
0.0391588
-2.98442
-2.24747
0.380766
-2.24747
1.58346
0.283249
1.58346
-4.19876
-0.0980919
-4.19876
-4.27
0.146181
4.27
0.0900489
1.19413
-1.19413
-0.846894
0.0989049
-0.846894
-4.07822
-0.120544
4.07822
-0.113431
-3.83582
-0.128966
-3.83582
-3.02424
0.0398241
3.02424
0.0410005
3.11324
0.0469006
-3.11324
0.0479924
-1.87089
3.75282
-1.88006
3.75384
-5.6022
-0.373201
-5.6022
6.28413
-0.308737
6.28413
3.49607
0.325268
-3.49607
0.359439
2.60941
0.137247
2.60941
-6.76445
-0.0377112
-6.76445
6.78841
0.0137458
6.78841
2.51376
0.0956478
-2.51376
0.0654798
2.33848
0.0373881
2.33848
2.89393
-0.0209124
2.89393
-2.87032
-0.00269472
-2.87032
2.79571
-2.79571
2.72617
0.0695426
-2.72617
0.0786993
-11.1328
11.1152
-0.0352239
-11.0976
5.17302
5.17302
4.14525
0.584724
4.14525
-4.99897
0.216321
-4.99897
2.70813
-5.27172
3.04223
-6.44348
4.67553
-16.2632
4.33173
-8.37427
6.6585
-6.6585
6.55307
0.105424
-6.55307
0.123832
-1.17567
0.0922269
-1.17567
-3.05822
-0.598705
-3.05822
4.30265
-0.645725
4.30265
-3.02752
3.02752
-3.07657
0.0490427
3.07657
0.0459827
2.30294
0.0355436
-2.30294
0.0461306
0.460694
0.102092
-0.460694
0.103482
3.44804
-0.195815
3.44804
-3.06123
-0.190996
-3.06123
-1.26179
0.086126
1.26179
0.0792979
-5.81551
0.249209
-5.81551
-11.1908
0.0932177
-11.1526
-6.10664
-6.10664
2.33356
11.1263
-2.89061
0.0202842
2.89061
0.025508
2.97408
0.0534462
-2.97408
0.0554852
-2.85962
0.0639149
2.85962
0.0589689
-2.62884
0.381367
-2.62884
-1.1777
1.1777
-1.34808
0.170382
1.34808
0.235373
1.4305
-0.236369
1.4305
0.907051
0.0538804
-0.907051
0.0601568
-3.73258
-0.103245
-3.73258
6.51745
-0.233317
6.51745
-2.95176
-0.109468
2.95176
-0.0578315
-0.0334255
11.1486
-5.1396
0.0337422
5.1396
-11.2095
11.2432
-3.25423
0.625389
3.25423
0.891027
5.29008
0.276225
-5.29008
0.29111
6.74
0.0484151
-6.74
0.0814982
-2.576
-0.48222
-2.576
-5.03828
-0.563921
5.03828
-0.735623
-11.4731
-0.204881
11.678
-11.4164
6.0204
0.136264
-6.0204
11.3795
-1.11528
-0.0788521
1.11528
0.0624203
1.73286
-0.302358
1.73286
3.63284
-0.184801
-3.63284
-0.0997349
-6.6715
-0.0929459
6.6715
-0.154049
-2.13324
-0.442759
2.13324
-0.400384
-4.26692
4.30461
1.90895
-2.44846
-2.53342
-5.43294
1.85151
1.90131
4.30277
-10.1895
-6.07371
-10.0146
7.256
-6.96489
-9.25883
9.18471
7.77557
-7.90453
-5.78691
5.83289
6.48292
-6.44192
1.87878
1.87486
7.90202
-7.69481
-15.6345
15.2613
7.44616
-7.41548
15.771
-15.8087
-17.8575
17.9059
-5.70565
5.81232
-6.73377
6.73108
-6.95617
6.89834
-2.88602
-3.55746
13.148
-13.001
8.48722
-8.4761
-8.58621
8.88869
3.382
0.922607
3.4289
-1.88229
3.76107
-1.87137
3.78032
2.66592
-5.55193
2.6058
-5.13922
4.25505
4.23216
-4.23702
-1.19592
-5.92086
5.95001
-5.81943
5.8784
9.04132
-9.11058
-1.88521
3.76007
-1.86863
3.76995
-3.4265
-2.36041
3.38034
0.92243
8.10405
5.04399
-8.28074
-1.73384
-8.00229
7.81749
-8.19622
8.00523
-0.432718
5.81655
-5.38383
4.4342
-1.56047
7.37702
5.69554
5.91186
5.86229
-5.58607
1.1026
-6.48643
-6.39815
-2.40227
2.50117
2.32092
-2.21161
6.05509
1.72048
5.94166
-5.72223
-2.1823
-5.82547
3.82165
2.01124
3.87069
4.07727
2.40565
4.11709
3.03054
-3.03566
0.00512369
-3.05638
6.08691
0.724408
-5.41679
-4.49436
4.93406
2.96795
5.11683
-5.48729
-2.20751
-5.12785
-9.54054
-6.09395
-10.1045
10.1016
5.15969
9.79287
-11.9728
11.8188
4.75658
2.68958
4.79832
-4.89447
-2.52101
-4.82899
11.6116
-2.59664
-9.01499
-10.3236
-7.53384
10.3099
5.46106
10.9712
6.93464
11.0527
4.42207
7.18955
-9.88314
2.3493
-3.86463
-1.84101
-3.78593
3.67879
2.13353
3.79281
-4.215
-2.51877
-4.19471
-4.29022
-2.66595
4.31114
2.41994
-4.40791
-3.78832
4.51737
2.38097
4.02825
-10.102
4.34602
-7.90349
-9.2144
-3.7866
-9.09057
3.46401
2.61939
-6.0834
-2.08792
8.42306
-4.1909
7.22714
-5.15952
-3.31659
-5.11338
-6.81676
-1.76945
-6.67058
-8.85609
8.37387
-9.17872
8.53299
12.5806
-5.68262
-6.898
-3.96854
-2.47338
3.92055
-0.491641
-3.71062
3.71574
0.0504494
3.83077
4.75337
4.26173
-3.88703
-1.9324
-3.83155
3.82969
2.04871
3.89361
6.78107
2.26025
6.78714
-6.5479
-2.56268
-6.64599
9.03145
-8.65069
2.88797
-2.80185
5.36973
2.63549
-5.17392
-2.82838
6.20362
-3.21105
-2.99258
-12.212
10.5695
1.64249
-4.83495
-0.400754
-0.272503
-5.48413
-3.7747
5.35734
0.554517
11.124
7.3493
-5.51125
5.76045
6.16674
6.22376
-0.174386
5.7678
-5.14241
5.29499
-2.50249
-2.7925
5.41066
-5.5312
-1.23533
-5.40374
4.16841
0.410455
1.60256
-1.37359
-1.86522
-0.537042
-1.80507
1.39208
0.928844
1.49417
0.925144
1.57603
-2.93618
0.559695
2.37649
-2.01104
-1.65191
-3.7361
-1.14326
4.87936
5.74033
2.07716
-5.6406
-0.184872
2.61109
-2.54413
-0.740458
-2.99564
2.21457
-2.95503
-3.68133
-1.9731
5.65443
-3.37093
-0.46062
3.31748
0.553211
-3.826
-2.09486
3.78684
0.330244
-3.12637
6.18851
-3.06214
-5.05877
2.52848
3.55844
4.53972
-4.78893
2.44658
2.34234
-1.23049
4.21707
0.899759
4.35432
-6.78995
4.58244
5.75561
3.13308
-6.08087
0.953021
-5.83693
8.47691
-7.29005
-1.18685
4.12902
4.34789
7.12114
5.45948
-5.72669
12.8478
-1.18098
-6.10908
7.0179
-3.88482
4.77555
-8.66037
-10.235
4.12595
-9.18261
10.9366
-1.75403
-3.62721
-8.34562
12.8098
-1.21393
-11.5959
8.57894
-4.18757
-4.27728
8.46484
-6.7842
6.79829
-1.96771
-4.83058
-10.1104
-5.69825
10.2034
1.61543
-9.8412
12.1905
-2.65165
4.07904
0.719278
4.11643
3.25107
-5.41225
2.16118
3.53314
-5.50084
2.0762
-7.48845
-6.71942
12.0759
-5.35649
-10.506
-9.50656
-0.999454
2.53347
9.65703
-9.46811
7.43896
2.02915
3.30607
0.587533
-3.37562
-0.410316
0.234455
4.53311
-4.76756
4.02727
4.1831
3.32203
1.21108
3.84285
2.10716
-3.86836
-0.326356
-4.1572
1.49126
-1.73726
-3.68696
5.17821
-4.06897
0.382014
-2.74217
-3.50202
6.24418
-4.58318
3.03609
3.15243
5.08479
-4.91216
1.41015
-2.39693
-2.51523
2.65882
-4.39609
1.98274
3.19547
4.36371
0.575389
5.86756
6.20835
-8.48694
0.583453
11.2523
-9.5185
2.45566
8.59708
-9.89462
0.388062
-8.7025
1.01918
-5.21008
-5.06421
5.10299
-6.87243
-3.55738
6.15589
0.631247
-6.24594
-0.424642
-6.03416
-2.82194
-6.47692
-3.04492
-6.1338
-8.77161
-1.64137
-7.13024
6.7325
-6.68027
-3.4242
7.41589
1.1171
-7.39861
7.31975
-7.48396
7.18161
0.095208
3.62053
4.35694
1.88356
-2.39004
4.2736
-5.08247
7.34272
-8.6284
3.54593
4.10566
-6.66834
-4.52274
5.03113
4.00032
5.31438
8.90585
-10.3801
1.47421
-10.706
12.0226
-1.31655
-16.465
5.75894
-7.55911
2.53424
0.353734
2.62647
0.57484
2.50138
-3.07622
-2.22701
-2.14771
-2.40295
-3.45024
5.85319
1.11462
-3.49571
2.38109
-3.56493
4.67955
-0.151636
-3.34407
5.29639
-2.795
5.65012
-3.71657
1.93355
3.40862
5.74702
-2.3384
4.38169
-1.7462
1.89692
-4.23533
-1.55332
-2.96075
5.09428
-3.28344
3.66545
-0.326718
3.99217
-4.08589
0.874842
-0.76386
3.41924
3.68101
4.29401
-3.08294
2.93389
-4.68009
-1.30144
-4.1047
-0.90923
-0.272301
-3.75217
4.02447
6.02399
-6.29629
-5.21688
9.5309
-4.31402
7.7184
-5.3806
-2.3378
-4.24097
-4.40972
3.8596
1.90819
9.62659
0.237573
-5.61817
-4.90484
-4.01381
3.14865
2.14634
-1.83245
3.47494
2.10495
-0.502397
0.491019
1.00315
1.82443
-1.33342
0.26696
1.55747
-1.10663
1.85912
0.751965
-1.913
0.107933
-1.29721
3.51178
1.07928
-2.00813
0.67471
1.00242
-3.50491
5.00889
-2.64033
-2.36856
6.01131
1.11182
-3.75215
4.29192
-3.88147
2.34446
-3.48772
-1.40769
-5.28916
-3.56868
-2.54799
4.92908
-3.30521
5.38236
1.24775
-5.19749
6.44524
-3.65602
1.68292
-3.09497
3.84694
-1.02353
-2.07144
2.86704
2.78739
-3.00171
0.0060676
-0.134675
2.38016
-2.51484
-0.574871
-2.58591
-4.57332
4.90357
-2.10593
4.55252
2.16767
-1.91588
6.4684
1.80994
-3.72582
-3.24883
-3.70945
-1.38348
3.15624
-0.59384
-4.23515
-5.42442
4.1395
0.214814
-6.92025
7.73449
-0.814242
-3.95229
-0.630143
4.75916
-5.98453
0.483686
-3.90833
3.82616
4.72592
4.94074
-11.3913
-0.204592
-6.23162
1.15426
-7.38588
5.50215
-3.5952
7.72115
-10.3697
6.94553
-9.25262
6.5343
-0.851577
6.24141
-4.08023
2.77358
-8.47184
-6.85641
5.41934
-2.72976
6.13862
-3.08343
9.22205
-5.73508
5.19504
4.02701
-0.972953
-4.14043
-5.20658
4.23362
-0.0115396
4.10489
4.97513
-2.86797
4.64877
2.26609
-4.66302
-2.13
-6.49942
1.8364
-3.34699
-1.91787
3.75428
3.16692
3.75445
1.23904
-3.34414
7.14354
-8.143
-1.78706
-3.27715
5.18715
-0.953523
3.33952
-6.61668
-1.87056
4.86411
-0.835061
-4.02904
0.818517
-4.3759
1.67773
-6.05363
5.19471
-5.61935
2.19471
-9.75382
-5.20389
-5.14147
-2.23758
-5.24638
-7.59595
5.35836
-1.83701
5.48275
-8.54362
7.70856
-3.47894
8.83731
-5.44013
-1.03678
5.84052
1.34109
10.1784
0.209445
-4.73218
-1.92785
3.92908
-2.00123
1.2208
-3.54272
0.38636
2.47451
3.5368
-6.64292
-0.0254148
-4.7576
-3.93016
7.93049
5.60074
11.6247
1.24467
9.10505
-1.17456
10.3497
4.13982
4.37519
-3.03218
4.50639
0.992287
4.53822
-0.901215
2.83477
1.72525
1.7808
0.763327
2.31266
1.36836
3.1875
0.111276
-2.03643
4.62481
-8.63862
-0.993359
-8.0539
1.13081
5.81795
-4.68714
3.0339
-0.887554
1.03266
0.0243069
-1.47926
1.45496
-2.76819
-1.98166
-0.424187
-1.65997
2.33468
1.85181
-1.9105
-0.857698
0.370113
-3.93879
3.11761
-3.11154
-0.324147
6.1211
-2.79905
0.284214
-1.11613
-2.30169
-2.83874
2.7308
6.1755
0.292899
3.11336
5.19647
3.10161
0.233637
3.89618
-5.65021
-3.59227
-5.8548
-0.352647
4.40651
1.73089
7.92615
5.7579
4.80438
-1.8123
-9.9553
6.54153
-2.03514
5.22498
-1.19594
-4.85769
5.00523
2.33748
-5.63648
0.0171288
-4.84056
-6.8757
-0.551644
8.2602
-9.62675
8.58997
5.76803
1.36221
-4.40965
-0.731822
4.23927
0.135924
10.4856
-1.17882
-6.7045
7.88332
-4.63913
3.64577
0.745172
2.72977
2.20013
1.31258
-5.39192
-10.0791
-1.99473
-1.51018
-4.36329
0.51607
-2.36788
6.26462
-2.61885
3.92682
5.26448
6.29714
-2.13483
-4.16146
6.44885
-2.52203
3.7751
)
;

boundaryField
{
    wall-4
    {
        type            calculated;
        value           uniform 0;
    }
    velocity-inlet-5
    {
        type            calculated;
        value           uniform -3.75095;
    }
    velocity-inlet-6
    {
        type            calculated;
        value           uniform -5.62643;
    }
    pressure-outlet-7
    {
        type            calculated;
        value           nonuniform List<scalar> 8(3.23248 7.75881 4.41778 9.75945 7.44379 5.14342 5.75036 9.00726);
    }
    wall-8
    {
        type            calculated;
        value           uniform 0;
    }
    frontAndBackPlanes
    {
        type            empty;
        value           nonuniform 0();
    }
}


// ************************************************************************* //
