/*--------------------------------*- C++ -*----------------------------------*\
| =========                 |                                                 |
| \\      /  F ield         | OpenFOAM: The Open Source CFD Toolbox           |
|  \\    /   O peration     | Version:  4.0                                   |
|   \\  /    A nd           | Web:      www.OpenFOAM.org                      |
|    \\/     M anipulation  |                                                 |
\*---------------------------------------------------------------------------*/
FoamFile
{
    version     2.0;
    format      ascii;
    class       volVectorField;
    location    "49";
    object      U;
}
// * * * * * * * * * * * * * * * * * * * * * * * * * * * * * * * * * * * * * //

dimensions      [0 1 -1 0 0 0 0];

internalField   nonuniform List<vector> 
918
(
(0.98509 -0.000551515 0)
(0.00479941 2.96625 0)
(0.0137772 0.861747 0)
(0.979828 0.00240758 0)
(-0.0114335 2.06171 1.60897e-20)
(-0.00705214 2.94891 -1.09249e-18)
(0.808475 1.16124 1.76726e-19)
(0.21332 0.111031 -6.30873e-21)
(0.999905 -0.000299985 0)
(0.0505331 0.813061 0)
(0.0137315 0.631968 0)
(0.732797 -0.0135214 0)
(0.0115038 2.93019 0)
(0.00292618 2.79515 0)
(-0.0212349 3.15087 3.38272e-19)
(-0.0256114 1.90452 -1.23976e-21)
(0.289685 0.0365519 4.16382e-19)
(0.204216 1.17865 1.27361e-19)
(0.961954 0.00387558 0)
(0.000443527 0.552106 0)
(0.0281694 0.137258 -2.98718e-19)
(1.00217 -0.00519891 0)
(1.00077 -0.0101509 0)
(0.975978 -0.00653309 0)
(0.578719 -0.0293193 0)
(0.0184163 2.63929 0)
(-0.014942 2.91017 3.83959e-19)
(0.0143959 0.927992 0)
(-0.00557405 1.17824 0)
(0.0152884 0.912207 0)
(-0.00892349 2.6108 0)
(0.00135682 2.11931 -1.2529e-20)
(-0.0111626 1.88663 0)
(-0.0204491 2.98752 -3.93218e-23)
(-0.0169803 3.00539 8.67812e-19)
(0.00200931 3.00014 0)
(0.870898 -0.00882601 0)
(0.438889 0.973633 8.05481e-20)
(0.784367 1.1772 -1.91172e-19)
(0.935101 1.01817 2.13448e-19)
(0.657151 1.27121 -4.07935e-20)
(0.659603 1.25454 2.3715e-19)
(0.251422 0.177636 6.15123e-21)
(0.226038 0.0860957 0)
(1.1429 0.576127 0)
(0.222708 0.167918 2.80583e-20)
(0.185367 0.109632 -2.91331e-20)
(0.919612 -0.00724707 0)
(1.00028 0.000157974 0)
(0.999916 0.000343388 0)
(1.00351 -0.00767131 0)
(1.00096 -0.000943049 0)
(1.00019 2.50591e-05 0)
(0.0613906 1.80638 -3.28425e-19)
(0.0238809 1.01294 0)
(0.0787339 0.882071 0)
(0.0109488 0.967824 0)
(0.030831 0.745692 0)
(0.00860365 1.99644 0)
(0.000504894 0.861243 0)
(0.0097844 0.640201 0)
(0.0026147 0.848909 0)
(0.00999081 0.618837 0)
(0.839796 -0.0146982 0)
(0.845208 0.029095 0)
(0.765864 -0.00473896 0)
(0.812552 0.0374206 0)
(0.703955 -0.0132842 0)
(0.0153158 3.00068 3.96881e-19)
(0.0116887 3.00843 0)
(0.00651409 3.00251 0)
(0.0141317 2.99722 4.4585e-24)
(0.00834405 2.95853 -5.99961e-19)
(0.0152056 2.98189 0)
(0.0112658 2.90363 0)
(0.0249488 2.93057 8.7938e-25)
(0.00525232 2.82516 0)
(0.0311529 2.91636 0)
(-0.00418598 2.74515 0)
(0.30217 3.54182 0)
(-0.146266 3.61836 0)
(0.133703 3.24333 -3.12239e-19)
(-0.0104249 2.98406 0)
(-0.0192005 1.99147 0)
(-0.0067337 2.16384 1.22254e-21)
(-0.0186903 1.90905 -6.27162e-21)
(0.392247 0.139244 -1.44258e-19)
(0.3046 0.0286022 -1.39683e-19)
(0.365534 0.148554 -4.33274e-19)
(0.266282 0.0453566 -2.84674e-19)
(0.192176 0.96068 0)
(0.214565 1.31269 -1.43719e-19)
(0.370993 1.26096 2.43499e-19)
(0.987342 0.00823805 0)
(0.941265 0.00544185 0)
(1.00031 0.000431061 0)
(1.00326 0.00949651 0)
(1.00287 0.00785183 -1.12756e-18)
(0.991771 0.00989044 8.60971e-19)
(0.000531609 0.8245 0)
(0.00326088 0.56543 0)
(-0.0321066 0.980326 0)
(-0.0149619 0.842914 0)
(0.00972552 0.546351 0)
(0.0570935 0.144151 9.25199e-20)
(0.119781 0.121139 0)
(0.993365 -0.00824691 0)
(0.954491 -0.00615538 0)
(0.758947 0.0444654 0)
(0.696333 0.0571496 0)
(0.664664 -0.0243554 0)
(0.965927 -0.0042401 0)
(0.607662 0.0823875 0)
(0.443258 -0.00118051 6.24434e-19)
(-0.0368666 2.86332 2.83029e-19)
(0.0413778 2.90946 0)
(0.0541138 2.88556 0)
(-0.00406341 2.69951 0)
(-0.0135541 2.98508 3.62571e-19)
(-0.0180883 2.89506 0)
(-0.0158768 2.988 -1.12802e-18)
(-0.0131248 2.92537 3.876e-19)
(-0.00593209 1.34446 0)
(0.0128188 1.37337 0)
(-0.0066102 2.13433 1.08458e-22)
(-0.00406541 2.09463 0)
(-0.026533 1.89533 0)
(0.938254 -0.00758733 0)
(0.857353 -0.00827547 0)
(0.862655 0.00558198 0)
(0.949283 -0.00782426 0)
(0.883784 -0.00737844 0)
(0.547606 1.16767 -1.02681e-19)
(0.596921 1.20606 0)
(0.40682 0.927466 1.49077e-20)
(0.346337 0.780684 0)
(0.899313 1.05619 -5.77735e-20)
(1.01235 0.868687 1.17588e-19)
(0.353914 1.3505 0)
(0.512798 1.33254 0)
(0.522614 1.27766 0)
(0.124832 0.213212 -1.27004e-19)
(0.284007 0.172678 0)
(0.251397 0.0782707 8.04052e-20)
(0.989078 0.922366 0)
(1.06754 0.78214 0)
(1.0889 0.723696 -9.26125e-20)
(1.1216 0.62979 0)
(1.17027 0.415174 2.40103e-20)
(0.957709 -0.00848683 0)
(0.962393 -0.0102387 0)
(0.90204 -0.00737743 0)
(0.984355 -0.00917598 0)
(0.974849 -0.00932914 0)
(0.937457 -0.00597784 0)
(1.00018 0.0021489 0)
(1.00086 0.00143208 0)
(0.999867 0.000910895 0)
(0.0283463 2.06763 1.80532e-19)
(0.097984 1.75811 0)
(0.0148753 2.17625 2.82268e-19)
(0.0413011 1.86152 -2.37112e-19)
(0.0945534 1.19895 -1.04019e-19)
(0.0421591 1.08221 0)
(0.119078 1.0265 0)
(0.00838345 0.923674 0)
(0.0103045 0.698008 0)
(-0.00147341 2.2308 -4.69675e-22)
(0.0169256 1.99983 0)
(-0.00105998 2.23314 -2.11407e-20)
(0.0105588 2.00399 3.72915e-20)
(0.00487544 0.896964 0)
(0.0044355 0.875954 0)
(0.00916289 0.663165 0)
(0.00241541 0.83983 0)
(0.00894164 0.603003 0)
(0.936426 0.0099593 0)
(0.846359 -0.0152921 0)
(0.926378 -0.000561557 0)
(0.840342 -0.0122347 0)
(0.81086 -0.000138407 0)
(0.900163 0.0205179 0)
(0.876209 0.0248401 0)
(0.787702 -0.00211098 0)
(0.00395023 3.06426 -3.50079e-21)
(0.0170302 3.05762 0)
(0.0153261 2.96896 0)
(0.00889841 2.87612 0)
(0.960451 3.97703 0)
(1.30482 3.24108 4.48793e-19)
(0.0684721 3.07572 0)
(-0.0234463 2.90761 0)
(0.00156035 1.39032 0)
(-0.0193132 1.69563 0)
(-0.00665794 1.52639 0)
(-0.0272119 2.56541 -1.52001e-21)
(-0.00795645 2.25044 0)
(-0.0162989 2.40178 0)
(0.000940736 1.93292 4.08795e-22)
(-0.00258424 2.2332 4.95018e-21)
(-0.00484399 2.19692 6.321e-21)
(-0.00928406 1.91853 0)
(0.432659 0.124615 2.19135e-19)
(0.347161 0.0192178 -2.15223e-19)
(0.271856 1.57908 0)
(0.250614 0.746741 -1.27087e-19)
(0.177721 1.67059 -4.18522e-19)
(0.204563 1.21381 4.19472e-19)
(0.901596 0.00582421 0)
(0.967296 0.0107778 0)
(0.974377 0.0106898 0)
(0.923126 0.00589886 0)
(-0.000328743 0.836793 0)
(0.00831961 0.827652 0)
(0.00879748 0.583324 0)
(0.192034 0.156658 2.59304e-19)
(0.161529 0.141812 -3.06544e-19)
(0.156132 0.113907 0)
(1.09123 0.08537 1.1704e-20)
(1.07039 0.0385274 0)
(1.00608 0.0397989 0)
(0.902425 -0.00459097 0)
(0.476358 0.108738 0)
(0.527554 0.0902514 -9.99367e-19)
(0.390958 0.0117256 3.74315e-19)
(0.00901067 2.981 3.0185e-19)
(-0.0332528 2.86671 1.91661e-20)
(0.00185584 3.04962 -7.40671e-21)
(0.0209019 3.04317 2.73459e-19)
(-0.0153561 2.99632 1.27232e-20)
(-0.0127886 2.94954 -5.13057e-23)
(-0.0175375 3.01146 -2.3403e-19)
(0.0142295 3.02289 1.68399e-19)
(0.00672377 3.03669 -2.73064e-19)
(0.933075 -0.00195233 0)
(0.939066 -0.00306916 0)
(0.844307 -0.00781386 0)
(0.956333 0.0116327 0)
(0.942602 0.0130014 0)
(0.881114 0.00538094 0)
(0.917323 0.0164332 0)
(0.926003 0.0148714 0)
(0.838142 0.00248697 0)
(0.760437 1.43209 2.45342e-20)
(0.802828 1.52324 0)
(0.214293 0.352351 3.1199e-20)
(0.2573 0.727768 2.4753e-19)
(0.29529 0.775744 -1.48713e-19)
(0.303526 0.553604 2.89058e-19)
(0.341392 0.827466 6.6129e-19)
(0.14087 0.243448 1.50725e-19)
(0.336133 0.160965 3.01509e-19)
(0.312456 0.169359 7.87066e-20)
(0.260293 0.05728 1.50012e-19)
(1.16137 0.471088 1.5928e-20)
(1.17413 0.268841 1.39863e-20)
(0.00882561 2.2258 1.09276e-19)
(0.0392186 1.92972 0)
(0.966919 0.0307628 0)
(0.940018 0.0129022 0)
(0.867725 -0.0174125 0)
(0.0111821 3.07426 0)
(0.0203881 2.94381 4.96677e-19)
(0.0171774 2.95618 0)
(0.00672746 2.8506 -4.95046e-19)
(0.00564698 3.09064 1.17311e-19)
(0.00600698 3.08215 0)
(0.887743 1.82626 -6.85403e-20)
(1.26988 2.37527 1.1768e-19)
(0.867894 1.92977 -4.75512e-19)
(0.0203138 2.98126 -2.62121e-19)
(0.0359938 3.00187 0)
(-0.0319399 2.88079 0)
(-0.00438627 2.21225 -6.15034e-21)
(-0.00278188 2.23632 -1.17379e-20)
(0.00393169 1.96799 -3.63882e-21)
(0.279242 1.39519 4.14924e-19)
(0.205385 0.544644 -2.82484e-19)
(0.0533736 1.99577 3.13939e-19)
(0.153309 1.889 -3.77818e-19)
(0.149487 1.48881 4.08307e-20)
(0.000861931 3.1187 -7.27273e-19)
(0.015869 3.11768 8.18613e-19)
(-0.00962594 2.98099 3.32707e-19)
(-0.00395107 2.97783 -3.14881e-19)
(-0.021314 2.88181 -3.39036e-19)
(0.00766296 3.09941 -8.73777e-19)
(0.00149939 3.10582 8.77406e-19)
(0.29733 0.738778 0)
(0.264841 0.737206 -5.1565e-19)
(0.112598 0.25182 2.29707e-19)
(0.35777 0.94935 4.49455e-19)
(0.187263 0.28347 -6.93385e-19)
(1.17225 0.176781 3.00251e-20)
(1.17546 0.318128 0)
(1.15831 0.12721 -6.6328e-21)
(0.000322652 2.24241 -7.36732e-22)
(0.0023064 2.23644 0)
(0.0224603 1.96762 0)
(0.351953 1.30038 -1.48304e-19)
(0.380644 1.14336 -3.23564e-19)
(0.190999 0.376399 5.7519e-19)
(1.00554 -0.0111717 0)
(1.00751 -0.00743135 2.09375e-19)
(-0.00282729 1.3221 0)
(-0.0207058 1.30558 0)
(1.00198 0.00345469 8.00609e-22)
(1.00381 0.0100526 4.23657e-19)
(-0.0136806 2.54841 2.00057e-21)
(-0.0211994 2.59087 0)
(0.0331478 3.17317 1.84761e-19)
(0.385793 3.47642 0)
(1.17769 0.645877 -2.73421e-20)
(1.0132 0.0136196 -7.61977e-22)
(1.02127 -0.0106824 0)
(1.00176 0.000120453 2.72139e-23)
(0.103814 1.35454 0)
(0.15149 2.57186 0)
(0.0209698 1.29712 0)
(0.000991065 2.62255 2.11495e-20)
(-0.0203125 2.57995 9.39068e-21)
(1.00098 0.0296174 1.02543e-21)
(1.06255 0.00373344 0)
(1.09419 0.0227784 0)
(-0.0192559 1.73772 0)
(-0.0174876 2.58645 0)
(0.0070298 1.29761 0)
(0.306954 1.46734 -6.78339e-20)
(1.01125 -0.00987575 0)
(1.0094 -0.0153626 0)
(1.00241 0.000645664 2.65929e-19)
(1.00538 -0.00477908 -3.15695e-19)
(1.0012 -0.00104729 0)
(-0.00320936 1.46021 0)
(-0.000965017 1.36395 0)
(0.00507606 1.41334 0)
(0.00518616 1.28561 0)
(-0.00369508 1.26426 0)
(0.00479193 1.24841 0)
(1.03441 -0.00689182 0)
(1.02057 0.0161031 -3.49459e-22)
(0.819422 1.25183 9.51363e-20)
(1.00221 0.000405024 -2.65223e-19)
(1.00402 0.00535131 3.15468e-19)
(1.00118 0.00212991 0)
(1.01341 0.0105863 2.6313e-19)
(1.00854 0.00868937 -3.18772e-19)
(1.00929 0.0156832 0)
(-0.0230087 2.61642 0)
(-0.0234322 2.59751 -3.35444e-21)
(-0.0212083 2.61123 2.41464e-21)
(1.23146 0.253108 2.48904e-19)
(1.15722 0.0790722 0)
(0.0423103 3.07343 -4.03032e-19)
(0.0646391 2.85362 -2.8742e-20)
(0.139751 3.19684 6.12384e-19)
(0.137476 3.22728 -7.76334e-20)
(0.131773 3.23358 0)
(0.0207527 3.13613 1.06963e-19)
(0.0745637 3.16144 3.93028e-19)
(0.0683179 3.18507 -2.03443e-19)
(0.0237789 3.12882 0)
(0.624188 0.276468 0)
(0.546077 0.318925 0)
(1.13159 0.676639 6.40684e-20)
(1.15431 0.800805 -6.11303e-20)
(1.19584 0.564597 0)
(1.2373 0.50405 0)
(1.0163 0.0136905 -4.96865e-19)
(1.01512 0.0148277 6.22752e-19)
(1.02521 -0.0100857 0)
(1.02321 -0.0123588 0)
(1.00639 0.00261199 0)
(1.01013 0.00362984 0)
(1.00459 0.00187887 0)
(1.00983 0.00609273 0)
(1.00803 0.00629652 0)
(1.00443 0.00444934 0)
(0.092001 1.35081 0)
(0.0884537 1.32019 0)
(0.121987 1.38618 0)
(0.144716 1.39992 0)
(0.146296 2.59582 0)
(0.186928 2.6608 -1.86832e-19)
(0.0989873 2.65247 0)
(0.0888703 2.65258 8.91217e-20)
(0.0407881 2.68086 -7.03474e-20)
(0.0167694 1.30628 0)
(0.0206647 1.24135 0)
(0.0208367 1.32031 0)
(0.0310403 1.26178 0)
(0.00134693 1.97822 -8.88578e-21)
(-0.0192969 2.60868 1.26902e-21)
(-0.00885084 2.66337 1.7441e-20)
(-0.0173176 2.68454 0)
(-0.022485 2.61466 -2.08035e-20)
(-0.0230587 2.60941 -6.15683e-21)
(0.0121515 1.97782 8.16619e-21)
(-0.00616925 2.39396 -1.6425e-21)
(-0.0131678 2.41671 -2.07325e-20)
(1.01115 0.0373659 5.0018e-19)
(1.00631 0.0170629 -6.21888e-19)
(1.0021 0.0441782 -5.04176e-19)
(0.980094 0.0234178 6.40704e-19)
(1.06364 0.00799258 0)
(1.04882 -0.00885425 0)
(1.09311 0.0317509 0)
(1.07332 0.0120652 0)
(1.07134 0.00104248 0)
(1.13435 0.0841626 0)
(1.10886 0.0431843 0)
(1.11468 0.028036 0)
(-0.0173122 2.43937 -1.88828e-22)
(-0.00291475 2.01244 0)
(-0.0109023 2.22078 0)
(-0.0192458 2.60789 -1.13969e-21)
(-0.0157263 2.61705 -9.9829e-23)
(0.00808934 1.55898 -4.13553e-21)
(-0.000638024 1.49291 4.16451e-21)
(-0.00433084 1.38028 0)
(-0.00625421 1.38795 0)
(-0.00560756 1.38325 0)
(0.00720261 1.29961 0)
(0.0164602 1.22923 0)
(0.378591 1.48899 1.11087e-19)
(0.432974 1.48622 5.7762e-20)
(0.595176 2.44059 -1.01458e-19)
(0.402897 2.5382 2.93926e-19)
(0.346086 2.06514 3.07203e-20)
(1.02114 -0.00810973 0)
(1.01546 -0.00986944 0)
(1.01498 -0.0160713 0)
(1.00735 -0.00122047 0)
(1.00494 -0.00104373 0)
(1.00772 -0.00462423 0)
(1.00919 -0.00372891 0)
(1.01409 -0.00445996 0)
(1.02127 0.0163602 4.88139e-19)
(1.01808 0.0161262 -6.1984e-19)
(1.02155 0.0182896 -4.88809e-19)
(1.01939 0.0171815 6.12913e-19)
(0.780303 1.30456 0)
(0.719307 1.3552 9.35725e-20)
(0.886983 1.21659 3.49763e-20)
(0.951679 1.14885 -4.65331e-20)
(1.15814 2.60021 1.23059e-19)
(0.792496 0.115857 2.44163e-19)
(1.15366 0.111138 0)
(1.20989 0.194407 -1.99374e-19)
(1.19885 0.145807 -8.46246e-21)
(1.00277 0.151759 0)
(0.154531 2.96115 2.09261e-19)
(0.109552 2.86793 -5.38939e-19)
(0.0248056 2.38191 3.33556e-19)
(0.0960841 -0.0621274 -1.39772e-19)
(0.334386 3.4199 -8.78012e-20)
(0.196116 3.31941 0)
(0.226551 3.35216 1.14264e-19)
(0.253094 3.041 -6.96327e-19)
(0.357457 3.20128 0)
(0.00605034 3.12076 2.0411e-20)
(0.0152396 3.12939 -2.44554e-19)
(0.0143555 3.12521 3.58655e-19)
(0.0348342 3.14014 0)
(0.0335135 3.14974 0)
(1.19037 2.63883 0)
(0.551436 0.823249 -2.14163e-19)
(1.07807 0.97207 3.56469e-21)
(0.983885 1.07418 0)
(0.837096 0.953207 -4.80777e-20)
(1.07161 0.884475 1.05046e-20)
(0.337047 0.368909 -3.7405e-19)
(0.671667 0.31402 -7.48729e-21)
(0.619061 0.219147 1.71622e-19)
(0.563783 0.36675 1.26227e-20)
(0.473032 0.312881 -5.09143e-19)
(0.640257 0.327904 0)
(0.708514 0.413269 2.89694e-19)
(0.713708 0.412533 0)
(0.598224 0.357763 0)
(0.554927 0.261037 0)
(0.810259 0.609202 1.72482e-19)
(1.22301 0.284081 -2.14454e-19)
(1.23093 0.416419 0)
(1.25144 0.351253 0)
(0.726817 0.192313 2.54904e-19)
(0.858859 0.544017 -1.58477e-19)
(0.757664 0.514147 2.81286e-19)
(0.956215 0.430998 -3.07606e-19)
(1.01986 0.014909 3.32272e-19)
(1.01804 0.0144615 -3.34485e-19)
(1.01589 0.0161723 0)
(1.03601 -0.00618225 0)
(1.02968 -0.00866613 -3.13244e-19)
(1.02755 -0.0126366 3.1076e-19)
(1.02495 0.0100893 0)
(1.0237 0.0135673 0)
(1.01119 0.00402059 0)
(1.01428 0.00896048 0)
(1.01471 0.00414632 0)
(1.01385 0.00302567 0)
(0.0608944 1.3336 0)
(0.0640642 1.28774 0)
(0.140375 1.35622 -6.51663e-21)
(0.277105 1.46539 3.52298e-20)
(0.168819 1.43481 7.58329e-20)
(0.211653 1.44658 -1.23242e-19)
(0.163258 1.37968 0)
(0.130304 1.59468 -3.11524e-20)
(0.109332 1.56402 0)
(0.348157 2.01131 -4.43991e-20)
(0.347874 2.35903 2.51855e-19)
(0.191647 1.4489 2.72398e-20)
(0.249161 1.37363 5.18557e-21)
(0.197609 1.36235 -4.16988e-21)
(0.25994 1.3224 -4.99095e-20)
(0.229234 1.57816 0)
(0.261011 1.60797 5.28183e-20)
(0.0281703 2.2643 -1.57722e-20)
(0.0435143 2.66986 0)
(0.0617339 2.40265 6.67142e-20)
(0.0575925 2.42532 0)
(0.0698946 2.66422 -9.91911e-20)
(0.0520043 2.69817 0)
(0.0279145 1.41143 1.05979e-21)
(0.0325185 1.46228 0)
(0.0289271 1.38139 0)
(0.024271 1.38424 -1.19308e-21)
(0.000242358 2.65111 -8.47062e-21)
(0.0298928 2.69671 7.9861e-20)
(0.0113402 2.72027 6.08639e-22)
(0.00426914 1.82713 7.54616e-21)
(-0.00479604 1.67701 3.14905e-21)
(0.0149708 1.2898 0)
(0.018309 1.21364 0)
(0.0480045 1.57246 1.6158e-21)
(0.0275006 1.4462 -1.14453e-22)
(0.0367534 1.51117 2.2709e-22)
(0.0379208 1.59668 0)
(-0.0224694 2.27284 3.50382e-20)
(-0.0297283 2.55445 -1.60863e-20)
(-0.00638574 2.44632 -3.61781e-22)
(-0.00228659 1.84167 -9.11144e-21)
(-0.0235225 2.49688 -3.24624e-21)
(-0.0182127 2.44187 1.34377e-20)
(1.01943 0.0212508 -3.29848e-19)
(1.01554 0.0269799 3.32204e-19)
(1.01446 0.0163576 0)
(1.01199 0.0715847 4.6247e-19)
(0.989484 0.0612005 -5.20521e-19)
(0.945706 0.0417716 5.84365e-19)
(1.01359 0.10654 -6.16897e-20)
(1.04222 -0.00594249 0)
(1.05062 -0.00162922 3.00035e-19)
(1.0387 -0.01041 -2.99353e-19)
(1.07076 0.0419883 -1.77051e-20)
(1.06417 0.0222458 1.52698e-19)
(1.06378 0.0534665 0)
(1.05343 0.0480847 -5.47927e-20)
(1.03262 0.0412964 0)
(1.02608 0.0378385 0)
(1.02755 0.0136875 0)
(1.02397 0.0162112 0)
(1.03942 0.0325414 1.12653e-19)
(1.03858 0.0259669 -2.4871e-19)
(1.05006 0.0322294 -1.19915e-19)
(1.04843 0.0324239 -1.31928e-19)
(1.0692 0.0620302 2.57427e-19)
(1.09291 0.0515733 0)
(1.10375 0.0929313 0)
(-0.0180238 2.26972 9.33638e-21)
(-0.0105501 2.0124 -6.35296e-22)
(-0.0114523 2.01394 0)
(-0.0194407 2.44877 -9.70816e-21)
(-0.0133255 2.40637 8.03876e-22)
(-0.0277977 2.47983 8.62721e-22)
(-0.0188738 2.62332 4.84947e-21)
(-0.0205008 2.56391 -7.23186e-22)
(-0.0165616 2.51345 2.14474e-21)
(-0.0128349 2.61915 -4.41845e-22)
(-0.0194086 2.62038 1.33836e-21)
(0.000971469 1.47624 -4.35746e-22)
(0.0177154 1.60845 -2.63877e-21)
(0.35661 1.43372 -4.53692e-20)
(0.357716 1.37447 1.99336e-20)
(0.657132 1.40953 -9.04865e-20)
(0.524346 1.47755 -5.6029e-20)
(0.591385 1.44259 0)
(0.583481 2.41884 9.52105e-20)
(0.655943 2.41742 1.45331e-19)
(0.403719 2.51535 3.74461e-20)
(0.405949 2.54747 -2.55036e-19)
(0.519859 2.4945 2.52276e-19)
(0.54396 2.45709 0)
(0.480038 2.51298 -2.38015e-19)
(0.23678 2.58786 4.93491e-19)
(0.346998 2.56814 -3.45523e-20)
(0.280498 2.65137 -6.73961e-19)
(0.934486 2.37684 3.24628e-19)
(0.828159 2.38631 0)
(1.01093 0.000261858 1.07145e-20)
(1.01526 -0.0054468 -8.87579e-21)
(1.01757 -0.00343327 -1.59896e-19)
(1.01486 -0.000863935 1.61649e-19)
(1.01222 0.00108076 0)
(0.643546 1.27875 0)
(0.65855 1.17613 0)
(0.766688 1.08096 0)
(0.657876 1.13298 0)
(1.18648 2.60995 2.71009e-20)
(1.07377 2.36025 0)
(0.851806 2.17017 1.65559e-21)
(0.822183 2.44106 0)
(0.922969 2.53359 -1.73288e-19)
(0.960559 2.49345 1.12555e-19)
(0.812657 0.178113 0)
(0.770625 0.150316 6.59442e-20)
(0.917953 0.146561 3.88265e-19)
(0.830156 0.148885 -1.44236e-19)
(0.796213 0.085241 -4.47887e-19)
(1.07492 0.234054 -3.82431e-19)
(0.997544 0.300277 -6.55566e-21)
(0.928244 0.289149 3.55175e-19)
(1.00708 0.225767 2.98283e-19)
(0.952265 0.191453 -5.14476e-19)
(0.919553 0.193284 6.40891e-20)
(0.95489 0.250967 -1.36584e-19)
(0.934015 0.217671 0)
(0.992895 0.185628 2.53583e-19)
(1.04756 0.188342 0)
(1.04323 0.218689 0)
(1.10133 0.119127 1.20611e-19)
(1.07632 0.177187 -6.11405e-21)
(1.07212 0.233873 -6.46681e-20)
(1.10223 0.203337 0)
(1.02189 0.0458766 2.56025e-19)
(1.04222 0.0585763 3.16343e-19)
(1.03424 0.0443474 -2.51408e-19)
(1.04274 0.0654863 -2.12557e-19)
(1.01715 0.0731495 -3.26174e-19)
(0.988892 0.15742 0)
(1.0017 0.105279 0)
(0.967221 0.0698037 -2.0775e-19)
(0.910803 0.09072 8.11119e-20)
(1.03883 0.102136 2.94498e-19)
(1.0695 0.118864 -3.46114e-19)
(1.07735 0.15087 3.05895e-19)
(1.0279 0.146369 0)
(1.07304 0.108702 0)
(1.05565 0.0870886 -1.41451e-19)
(1.04489 0.095311 -2.4069e-19)
(0.576908 1.07401 6.05258e-20)
(0.622557 1.38476 -2.47388e-20)
(1.16018 2.73436 -9.83685e-20)
(1.23694 3.07146 -1.05928e-21)
(1.24996 2.70728 -5.90978e-20)
(1.2797 2.70514 -3.27327e-20)
(1.16653 2.34897 8.07161e-21)
(1.22557 2.96524 -5.63009e-20)
(1.24761 2.93399 1.23314e-19)
(1.24254 3.22585 -7.93949e-20)
(1.36435 2.96167 9.13018e-20)
(1.30173 2.88619 0)
(0.559604 0.827943 -2.05316e-20)
(0.105545 1.23365 2.50524e-19)
(0.563657 0.412132 2.45649e-19)
(0.373054 0.149963 2.64205e-19)
(0.503943 0.361032 2.88737e-19)
(0.551469 0.447793 -4.7682e-19)
(0.545588 0.462223 3.90838e-19)
(0.483492 0.368856 -1.46781e-19)
(0.386501 0.295606 3.29862e-19)
(0.732042 0.260728 -1.46031e-19)
(0.691886 0.281098 0)
(0.660304 0.201919 3.1927e-21)
(0.73948 0.508507 1.52042e-19)
(0.714681 0.468699 -5.56355e-19)
(0.610879 0.458305 4.84715e-21)
(0.622098 0.444922 0)
(0.67641 0.721553 1.66628e-19)
(0.854328 0.777639 1.61154e-19)
(0.769501 0.861207 -1.87887e-19)
(0.89257 0.806533 -6.45319e-20)
(0.917339 0.839534 -1.65635e-20)
(0.923686 0.840806 1.70149e-20)
(0.86092 0.641817 -2.86866e-19)
(0.936021 0.708119 6.0135e-20)
(0.990128 0.716291 0)
(0.972341 0.686376 -8.48326e-20)
(1.02692 0.32448 8.88023e-20)
(1.12467 0.29425 1.25763e-19)
(1.0622 0.270705 1.53294e-19)
(1.01684 0.367286 -1.80041e-19)
(1.06106 0.428421 0)
(1.10634 0.41193 0)
(0.921831 0.36063 2.48213e-21)
(0.844321 0.298856 0)
(0.885615 0.29663 1.66503e-19)
(0.916367 0.296383 -3.72357e-21)
(0.947127 0.432052 8.57473e-19)
(0.907182 0.492076 2.23688e-19)
(0.908724 0.456617 -2.38155e-19)
(0.827654 0.442063 2.55498e-19)
(0.812718 0.439324 1.53915e-19)
(0.778397 0.419064 -1.49868e-19)
(1.02737 -0.000216254 2.64644e-19)
(1.01993 2.83749e-05 0)
(1.01854 0.000878402 1.74832e-19)
(1.02127 -0.00202412 -3.94135e-19)
(1.02217 0.00453316 1.91894e-19)
(1.02041 0.0113429 -4.03786e-19)
(1.02142 0.0106405 0)
(1.02096 0.010638 -8.34446e-20)
(1.01587 0.00785303 2.09003e-19)
(1.01679 0.0103929 -1.05736e-19)
(1.01748 0.00967844 7.7851e-20)
(0.0263868 1.31287 0)
(0.0335065 1.35712 0)
(0.041688 1.31255 0)
(0.0438919 1.27006 0)
(0.0651186 1.37775 -1.91236e-21)
(0.0743565 1.34619 4.0556e-21)
(0.11565 1.5087 -1.09958e-20)
(0.0882254 1.35887 3.974e-21)
(0.0322656 1.451 -8.95921e-21)
(0.0358983 1.44351 6.93077e-21)
(0.0593082 1.3611 -1.6578e-21)
(0.0536944 1.36231 3.76683e-21)
(0.045849 1.34019 4.47469e-22)
(0.0384918 1.36309 -5.90187e-22)
(0.106054 2.37244 -7.19108e-20)
(0.0905184 2.42186 0)
(0.165896 2.06404 4.68209e-20)
(0.111087 1.7056 1.80446e-20)
(0.235192 2.05281 -3.7816e-20)
(0.204013 2.43899 0)
(0.268248 2.39245 -2.47794e-19)
(0.30547 2.39065 1.75134e-19)
(0.221034 2.00621 -1.1027e-19)
(0.149358 2.16692 7.47757e-20)
(0.150961 2.28154 0)
(0.0129107 1.87808 -1.14763e-20)
(-0.00138989 2.396 -3.06951e-20)
(0.00390772 2.14993 0)
(0.00946259 2.45833 -5.49246e-21)
(0.0246155 2.30365 1.04371e-20)
(0.0171272 1.39291 -6.85052e-22)
(0.0171027 1.37867 1.2125e-20)
(0.0172298 1.38362 -5.12743e-21)
(0.0217292 1.38442 -2.18066e-21)
(0.026903 1.41566 0)
(0.0133996 1.36449 0)
(0.00858982 1.28395 -5.052e-21)
(0.0144157 1.35615 1.24245e-21)
(0.0157995 1.35647 0)
(0.0111263 1.27568 -3.23579e-21)
(0.0189296 1.20769 7.35729e-21)
(1.03987 0.0108307 0)
(1.04568 0.00741945 -2.79478e-20)
(1.0385 0.0214362 -2.00472e-19)
(1.04787 0.0200859 0)
(1.05146 0.0199286 0)
(1.03646 0.0113837 -2.8275e-21)
(1.03133 0.0109075 3.23047e-19)
(1.03155 0.0164844 3.95234e-19)
(1.02552 0.0204471 0)
(1.02294 0.0208205 0)
(1.03482 0.0257232 2.00855e-19)
(1.02606 0.0265423 0)
(1.02437 0.0262788 0)
(-0.0185683 2.01569 0)
(0.0182637 1.64651 -3.17117e-21)
(0.00427232 1.75532 -1.48246e-20)
(0.00965604 1.36795 0)
(-0.00655556 1.5416 -1.76517e-21)
(0.00450787 1.44652 8.99175e-22)
(0.00535321 1.37795 0)
(0.381528 1.67183 0)
(0.364791 1.29702 -3.89509e-20)
(0.308777 1.34294 0)
(0.418751 1.29657 1.3988e-20)
(0.467499 1.45902 0)
(0.447913 1.40571 5.44382e-21)
(1.0317 2.68086 -6.89285e-21)
(0.959602 2.41053 -3.96762e-19)
(0.910085 2.19486 4.52701e-19)
(0.841411 2.37838 1.11987e-19)
(0.841297 2.49572 0)
(0.913478 2.48866 0)
(0.916931 2.37196 0)
(0.896275 2.35961 -4.1025e-19)
(0.685112 2.45741 -1.69785e-19)
(0.795934 2.45305 -4.12521e-20)
(0.808509 2.42268 3.26439e-20)
(0.687105 2.39326 0)
(0.793098 2.39191 0)
(0.748293 2.4024 -1.56642e-19)
(0.765056 2.49093 0)
(0.627808 1.1045 0)
(0.485979 0.910308 -2.08488e-19)
(0.5741 0.939434 -1.34682e-20)
(0.528624 1.04629 0)
(0.530769 0.993643 3.15477e-19)
(0.791887 0.885633 -5.43189e-20)
(0.798651 1.00992 0)
(0.771222 0.961025 8.03979e-20)
(0.654167 1.04045 0)
(0.661024 0.943551 0)
(1.16718 2.75043 -1.03563e-19)
(1.14391 2.81574 -4.78835e-20)
(0.938322 2.32722 5.57663e-20)
(0.899147 2.30738 -3.90289e-20)
(1.1304 2.722 0)
(1.083 2.69031 4.9174e-20)
(1.08932 2.4761 -1.37685e-19)
(0.981231 2.23383 -1.40492e-20)
(0.496439 1.34853 0)
(0.508634 1.07032 -5.30539e-20)
(0.573162 1.154 0)
(0.860378 0.237692 0)
(0.780738 0.194065 0)
(0.713554 0.155791 0)
(0.855692 0.237501 -2.61755e-19)
(0.751122 0.229468 1.53314e-19)
(0.927039 0.0768604 -1.68576e-19)
(0.942666 0.12434 0)
(0.921469 0.137278 7.21407e-20)
(0.858671 0.112694 2.90534e-19)
(0.826891 0.0702205 -1.8229e-19)
(1.17228 3.35979 -3.0739e-19)
(1.22414 3.28247 0)
(1.13777 3.3778 -6.04299e-19)
(0.636562 3.53651 5.28223e-19)
(0.847811 3.10518 2.11563e-20)
(0.515848 0.830211 2.51745e-19)
(0.41816 0.826235 0)
(0.313775 0.459857 -6.17533e-20)
(0.461919 0.663562 3.50625e-19)
(0.556589 0.424473 -8.42278e-20)
(0.522821 0.490388 9.62642e-20)
(0.661436 0.515465 2.08402e-19)
(0.698194 0.538797 0)
(0.656492 0.587624 0)
(0.612528 0.52949 0)
(0.98836 0.602056 4.14116e-20)
(0.911124 0.540357 -2.15969e-19)
(0.934013 0.570172 1.67257e-19)
(0.96546 0.513873 -1.67973e-19)
(1.08079 0.487008 0)
(1.07208 0.568843 -4.21604e-20)
(0.851149 0.398168 -3.49363e-19)
(0.855092 0.386941 -4.24238e-19)
(0.794614 0.380815 2.70995e-19)
(0.798336 0.358559 -2.76365e-19)
(0.846344 0.320788 -2.16889e-19)
(0.793894 0.319989 2.66787e-19)
(1.02669 0.00585399 -2.0506e-19)
(1.02631 0.00622952 4.24697e-19)
(1.02953 -0.000361306 2.56456e-19)
(1.03339 0.000832841 -3.10073e-19)
(1.03309 0.00782932 0)
(1.02996 0.00874799 -5.07907e-19)
(0.0599551 1.63642 1.01339e-20)
(0.0436536 1.572 0)
(0.0851774 1.68268 7.26358e-20)
(0.0933573 1.66482 -6.46954e-20)
(0.088934 1.52152 2.05364e-20)
(0.0865711 1.51232 0)
(0.0167471 1.67284 0)
(-0.00306813 1.47629 -7.95006e-22)
(0.00344811 1.42235 7.14113e-22)
(-0.00131513 1.53812 3.09604e-21)
(0.00803607 1.87517 -1.5576e-21)
(-0.00775305 1.92734 2.63087e-21)
(0.498482 1.36932 -1.12795e-19)
(0.492343 1.37734 1.2165e-19)
(0.447053 1.29428 -1.65688e-20)
(0.435764 1.29077 3.30026e-21)
(0.63099 1.30156 0)
(0.546169 1.39024 3.87705e-20)
(0.563348 1.39945 -3.76292e-20)
(0.458849 1.28174 1.61177e-20)
(0.516256 1.23773 0)
(0.562296 1.19957 0)
(0.647063 2.4157 2.54805e-19)
(0.669954 2.45993 5.23999e-19)
(0.708884 2.47345 -3.59483e-19)
(0.606801 2.45378 -8.52846e-20)
(0.562661 2.53997 1.21387e-19)
(0.522831 2.52189 -3.13809e-19)
(0.975394 2.37718 -2.51964e-19)
(1.01103 2.38718 0)
(0.919964 2.17453 -2.92411e-19)
(1.05354 2.67092 0)
(1.05667 2.65778 0)
(0.600058 2.24583 -7.22752e-20)
(1.02882 3.15329 4.6162e-20)
(0.89561 3.01272 1.15564e-20)
(0.280347 0.88321 0)
(0.313994 0.718188 -1.32357e-19)
(0.457858 0.687551 -1.32845e-19)
(0.39465 1.9729 0)
(0.477459 2.7836 -1.49785e-20)
(0.43194 2.5671 0)
(0.694491 0.660348 -3.51153e-19)
(0.780647 0.681223 4.69182e-19)
(0.808666 0.616492 -4.59962e-19)
(0.682122 0.625562 -4.52601e-20)
(0.732112 0.58435 -1.84959e-19)
(1.01439 2.7576 -3.48649e-20)
(1.04795 2.82996 -4.95225e-20)
(0.65197 2.12479 2.98099e-19)
(0.580738 1.70362 -2.06408e-19)
(0.710713 1.89864 -1.74921e-19)
(0.99679 2.46319 -4.58913e-20)
(0.997905 2.45002 1.07312e-19)
(0.663828 1.86341 9.76408e-21)
(0.459291 1.32618 6.27408e-20)
)
;

boundaryField
{
    wall-4
    {
        type            noSlip;
    }
    velocity-inlet-5
    {
        type            fixedValue;
        value           uniform (1 0 0);
    }
    velocity-inlet-6
    {
        type            fixedValue;
        value           uniform (0 3 0);
    }
    pressure-outlet-7
    {
        type            zeroGradient;
    }
    wall-8
    {
        type            noSlip;
    }
    frontAndBackPlanes
    {
        type            empty;
    }
}


// ************************************************************************* //
