/*--------------------------------*- C++ -*----------------------------------*\
| =========                 |                                                 |
| \\      /  F ield         | OpenFOAM: The Open Source CFD Toolbox           |
|  \\    /   O peration     | Version:  4.0                                   |
|   \\  /    A nd           | Web:      www.OpenFOAM.org                      |
|    \\/     M anipulation  |                                                 |
\*---------------------------------------------------------------------------*/
FoamFile
{
    version     2.0;
    format      ascii;
    class       volScalarField;
    location    "43";
    object      p;
}
// * * * * * * * * * * * * * * * * * * * * * * * * * * * * * * * * * * * * * //

dimensions      [0 2 -2 0 0 0 0];

internalField   nonuniform List<scalar> 
918
(
0.570373
1.21902
0.00393274
0.569741
-0.0120528
1.18607
-0.485671
0.72351
0.550527
-0.0810016
-0.0142606
0.546577
1.04659
0.812659
-1.10994
-0.00203793
0.674477
-0.364201
0.549576
-0.0189663
0.759044
0.557106
0.560137
0.550722
0.61535
0.7921
0.927472
0.0199392
0.00262367
0.000414831
-0.0122026
-0.0391831
-0.0281216
1.06971
1.12081
1.14349
0.518713
0.34612
-0.350657
-0.417763
-0.410545
-0.529644
0.71703
0.716662
-0.169952
0.726328
0.733066
0.537685
0.54989
0.550796
0.551865
0.550822
0.552215
0.428515
-0.0844406
-0.116331
-0.0608657
-0.053
0.0788766
-0.0153517
-0.0165834
-0.0140212
-0.0172283
0.46914
0.542127
0.53924
0.551787
0.560828
1.15857
1.13048
1.15663
1.0703
1.08681
1.02457
0.997237
0.833302
0.855101
0.798284
0.787041
-1.54721
-2.50843
-0.51473
-0.261035
-0.0118691
0.00373869
0.0179635
0.666994
0.665928
0.676283
0.686363
1.09885
-0.362332
-0.472976
0.549708
0.548508
0.556882
0.557578
0.553592
0.552685
-0.0194814
-0.0189117
-0.0178916
-0.0191914
-0.0222582
0.748125
0.745725
0.55126
0.548276
0.567574
0.588574
0.580254
0.297805
0.61882
0.631953
0.617063
0.783152
0.776997
0.785813
0.900885
0.864612
0.964733
0.98781
0.0150916
0.0027459
-0.00702623
-0.0128422
-0.0111747
0.514627
0.50731
0.533813
0.522084
0.524536
0.261906
0.127006
0.431702
0.456765
-0.26466
-0.324566
-0.416368
-0.439572
-0.554344
0.617144
0.70745
0.705572
-0.187465
-0.113211
-0.242511
-0.0400355
-0.100498
0.528058
0.534987
0.530031
0.545468
0.539961
0.541913
0.554144
0.551222
0.552778
0.49123
0.614959
0.354716
0.320172
-0.223205
-0.134562
-0.225911
-0.039304
-0.0338022
0.0937663
0.119547
0.0655029
0.0546164
-0.0280206
-0.0191765
-0.0231956
-0.016111
-0.0178167
0.462061
0.451196
0.481558
0.488908
0.532036
0.533228
0.536631
0.535073
0.947972
0.970229
0.977921
0.951769
-3.50849
-6.30997
0.0676317
0.205834
-0.00336721
-0.00921284
0.00317465
-0.00438093
0.00110573
-0.00108704
0.0152209
0.0155609
0.0193312
0.0238675
0.655603
0.655521
1.01838
1.02009
0.998684
0.949442
0.537821
0.539933
0.545466
0.541328
-0.0186456
-0.0192081
-0.0207763
0.734396
0.741732
0.739738
0.260426
0.173062
0.347427
0.375632
0.646977
0.635325
0.645177
0.677448
0.714466
0.995208
1.01352
1.01172
1.02023
1.0643
1.08073
1.04605
0.494552
0.504272
0.499371
0.536992
0.534709
0.535638
0.531203
0.53266
0.53049
-0.0248342
-0.408218
0.505846
0.52433
0.505684
0.511323
0.696884
0.774417
0.688096
0.6978
0.695643
0.0264121
-0.0311042
0.276251
0.24258
0.403072
0.438741
0.418088
0.919131
0.879714
0.92977
0.902982
0.86452
0.889816
-0.3598
-1.87164
-0.984038
0.559521
0.37144
0.459559
0.0358095
0.0178292
0.0236435
1.01299
1.08972
0.670586
0.8399
0.846518
0.753235
0.783024
0.837947
0.764331
0.798235
0.832763
0.813423
0.573963
0.517992
0.528947
0.844589
0.901381
0.145447
0.0881616
0.0437639
0.13884
0.195595
0.169943
1.05175
0.957401
1.02948
0.548027
0.548729
0.00708963
0.00280688
0.552906
0.552952
-0.00772363
0.00279072
0.442638
-0.819241
0.129995
0.541397
0.531564
0.548537
-0.0636222
0.383215
-0.0146568
0.0754511
0.0177432
0.544536
0.479791
0.440017
0.0129837
-0.0117857
-0.0163335
-0.192195
0.5457
0.544009
0.548007
0.548976
0.549641
-0.00353926
0.000846988
-0.00117586
-0.0173417
-0.0147844
-0.0180639
0.51294
0.530854
-0.147837
0.548149
0.550275
0.550098
0.543296
0.548951
0.547185
-0.00116106
-0.0055694
-0.011236
0.244102
0.369354
0.687593
0.779431
0.656423
0.429452
0.1915
0.587812
0.6529
0.556326
0.713088
0.702157
0.719706
0.195509
0.0458936
0.203334
0.144702
0.539262
0.537952
0.529827
0.526865
0.543404
0.541519
0.546067
0.543069
0.546012
0.547407
-0.0216575
-0.0459035
-0.0597226
-0.126064
0.339581
0.599605
0.279581
0.309681
0.170446
-0.00891023
-0.0106253
-0.0140823
-0.0192361
0.0290871
0.00248139
0.0691591
0.0695501
0.0395833
0.0145548
0.0204257
0.00801834
0.0114419
0.537788
0.536122
0.542471
0.551188
0.489167
0.492928
0.458577
0.478897
0.464361
0.404993
0.439243
0.414756
0.00506721
0.0182549
0.00775668
-0.00573413
-0.00209729
-0.0123137
-0.00870298
-0.0103408
-0.00160338
-0.00882616
-0.0136493
-0.0209189
-0.151579
-0.265366
1.00438
0.937002
0.146139
0.534893
0.541314
0.538096
0.542915
0.546041
0.546882
0.544624
0.54119
0.531346
0.533021
0.529579
0.530286
-0.08404
-0.220889
-0.0491033
-0.119448
0.155847
0.63791
0.381155
0.319963
0.314233
0.538471
0.946593
0.738165
0.722982
0.742587
-0.324536
0.0712106
-0.25807
0.361708
0.184028
0.684854
0.735234
0.757718
0.704882
0.65693
-0.0945881
0.56897
-0.0436298
0.00500108
0.20204
0.0871119
0.72382
0.6856
0.689716
0.708781
0.727216
0.691725
0.674392
0.669116
0.704308
0.707968
0.514473
0.275235
0.228099
0.189814
0.667739
0.552556
0.608047
0.519478
0.534304
0.537026
0.535626
0.517679
0.525134
0.520762
0.526869
0.5302
0.539118
0.539502
0.534885
0.537043
-0.026731
-0.0298652
-0.00513057
-0.114331
-0.105066
-0.164455
-0.0422211
0.0985541
0.0616344
0.255409
0.361521
0.0739918
-0.040923
-0.0118242
0.024096
0.200132
0.225394
0.10269
0.19004
0.17912
0.162883
0.264079
0.269215
0.00272746
-0.00143061
-0.00167028
-0.00408715
0.0464456
0.11929
0.129093
0.021
0.016014
-0.0129425
-0.0141314
0.00535149
0.00190871
0.00456556
0.0408019
-0.0363396
-0.00462002
0.0114806
0.0231728
0.0176346
0.0130183
0.530352
0.532522
0.532179
0.539876
0.557505
0.573413
0.530922
0.510953
0.501923
0.504903
0.478528
0.488652
0.484564
0.498015
0.518322
0.527407
0.525045
0.527697
0.510571
0.512179
0.499173
0.502814
0.478392
0.459654
0.448152
-0.0259263
0.0124182
0.00385118
-0.0234303
0.00685708
-0.00576528
0.0108874
0.0259295
0.0124756
0.00707963
0.000648335
-0.00803056
-0.0040699
-0.0565575
0.0264558
-0.165418
-0.199566
-0.268265
0.908467
1.02902
0.831062
0.606492
0.620779
0.860936
0.947855
0.568576
0.754723
0.778496
0.591579
0.859979
0.539691
0.539304
0.536905
0.536383
0.537607
0.00584386
0.10766
0.114878
0.171335
0.287253
0.400618
0.322723
0.199459
0.332296
0.33617
0.632082
0.645764
0.599591
0.622263
0.622842
0.444665
0.52137
0.574766
0.530283
0.579543
0.60081
0.558875
0.589912
0.539226
0.494991
0.491662
0.440512
0.462238
0.439054
0.420714
0.529472
0.507304
0.517569
0.507883
0.527338
0.551251
0.548099
0.580034
0.591161
0.511832
0.468988
0.478941
0.508237
0.469185
0.483633
0.499359
0.238035
0.137522
0.222987
-0.066337
0.0123154
-0.00240754
-0.0496274
-0.00312971
0.282321
-0.413509
-0.387769
-1.01968
0.509439
0.976495
0.67587
0.648871
0.724049
0.703925
0.708539
0.729888
0.734986
0.658311
0.67557
0.679192
0.640543
0.664063
0.686369
0.683511
0.539435
0.408642
0.402885
0.357417
0.229134
0.265178
0.467763
0.389465
0.31446
0.316428
0.479723
0.366547
0.434608
0.472854
0.40425
0.358496
0.563801
0.628558
0.61827
0.592938
0.511382
0.526095
0.550348
0.58612
0.612658
0.644637
0.526554
0.532363
0.533615
0.531155
0.528351
0.531312
0.53145
0.533984
0.534765
0.537699
0.53671
-0.0138932
-0.00234136
-0.0163196
-0.0227368
0.00660604
0.00241968
0.0469761
0.0328482
0.0172026
0.023807
-0.00248188
-0.00691668
-0.00156765
0.00761322
0.124214
0.137464
0.121238
0.081867
0.269269
0.399927
0.470313
0.348875
0.241855
0.265744
0.288472
0.0145084
0.0410571
0.0279976
0.0685781
0.0606178
-0.00683349
-0.0121441
-0.00873027
-0.00250856
0.00932808
-0.0104189
-0.0169992
-0.00744784
-0.0114536
-0.0137826
-0.0180143
0.513148
0.506689
0.508176
0.502204
0.500974
0.514974
0.519213
0.521077
0.526417
0.528499
0.518937
0.524451
0.528092
0.00819973
-0.0143514
-0.0199014
-0.0039099
-0.00732666
-0.0073905
-0.00616593
0.134507
0.0645924
0.069032
0.0236133
-0.104422
-0.047235
0.497946
0.49594
0.491346
0.728489
0.578871
0.497614
0.593294
0.698853
0.284859
0.483552
0.31652
0.900047
0.793077
0.93962
0.554458
0.252093
0.409758
0.45982
0.267067
0.339723
0.342593
0.229684
0.261685
0.295151
0.396809
0.273864
0.248777
0.00605551
0.193856
0.310679
0.291542
0.420218
0.482567
0.270367
0.191049
0.146213
0.623052
0.64099
0.658041
0.630531
0.653664
0.589478
0.577817
0.595823
0.605369
0.601309
-0.74716
-0.454289
-1.39884
-0.713833
-0.262457
0.540465
0.504192
0.781486
0.665171
0.725416
0.709757
0.666751
0.633235
0.648979
0.679014
0.372281
0.484394
0.458928
0.463914
0.364272
0.296071
0.598444
0.59236
0.628055
0.651785
0.61952
0.651674
0.524306
0.523965
0.523549
0.519905
0.518212
0.520461
0.0850892
0.0537038
0.0888514
0.0701901
0.0476029
0.0357777
0.0169815
0.00816894
-0.000904004
-0.00124186
0.00981446
0.0148151
0.176224
0.117098
0.0404852
0.0691383
0.00991189
-0.0562363
-0.0747039
0.0266139
0.119575
0.110006
0.416508
0.668616
0.489247
0.658232
0.497254
0.553325
0.481899
0.474956
0.501662
0.388954
0.4683
0.243382
-0.263117
-0.170909
0.797592
0.814137
0.597032
0.413796
0.18323
0.369615
0.563616
0.497676
0.536059
0.605559
0.596132
0.0253162
0.0896642
0.356862
0.584121
0.244128
0.236334
0.230564
0.407246
0.329594
)
;

boundaryField
{
    wall-4
    {
        type            zeroGradient;
    }
    velocity-inlet-5
    {
        type            zeroGradient;
    }
    velocity-inlet-6
    {
        type            zeroGradient;
    }
    pressure-outlet-7
    {
        type            fixedValue;
        value           uniform 0;
    }
    wall-8
    {
        type            zeroGradient;
    }
    frontAndBackPlanes
    {
        type            empty;
    }
}


// ************************************************************************* //
