/*--------------------------------*- C++ -*----------------------------------*\
| =========                 |                                                 |
| \\      /  F ield         | OpenFOAM: The Open Source CFD Toolbox           |
|  \\    /   O peration     | Version:  4.0                                   |
|   \\  /    A nd           | Web:      www.OpenFOAM.org                      |
|    \\/     M anipulation  |                                                 |
\*---------------------------------------------------------------------------*/
FoamFile
{
    version     2.0;
    format      ascii;
    class       volScalarField;
    location    "28";
    object      p;
}
// * * * * * * * * * * * * * * * * * * * * * * * * * * * * * * * * * * * * * //

dimensions      [0 2 -2 0 0 0 0];

internalField   nonuniform List<scalar> 
918
(
0.294766
0.953868
0.0230878
0.294035
-0.0206463
0.920924
-0.764415
0.468795
0.274845
-0.346054
-0.347752
0.266796
0.781445
0.547589
-1.39133
-0.276905
0.421276
-0.643617
0.273849
-0.188309
0.509086
0.281489
0.28453
0.275128
0.335492
0.530573
0.662018
-0.0199465
0.0109677
-0.0172312
-0.0402349
-0.116356
-0.152495
0.804573
0.855651
0.878323
0.243524
0.0712162
-0.622096
-0.694877
-0.683276
-0.812167
0.460855
0.464622
-0.429411
0.468672
0.480151
0.262201
0.274203
0.275135
0.276241
0.27516
0.276572
0.165853
-0.351571
-0.38112
-0.326375
-0.319512
-0.153084
-0.332623
-0.321058
-0.360291
-0.369751
0.196348
0.263695
0.261293
0.271761
0.278721
0.893414
0.865337
0.891471
0.805117
0.821634
0.759425
0.731942
0.568364
0.589689
0.532193
0.521167
-1.83144
-2.79891
-0.79294
-0.537642
-0.0110282
-0.253221
-0.242448
0.411029
0.413412
0.42138
0.433445
0.817246
-0.638831
-0.775824
0.273935
0.272726
0.281193
0.281873
0.277881
0.276972
-0.239651
-0.279942
-0.0605954
-0.157079
-0.123387
0.495817
0.493198
0.275681
0.272715
0.286385
0.307781
0.298672
0.0347692
0.342084
0.359623
0.348813
0.518593
0.513595
0.522165
0.635567
0.598357
0.699347
0.722674
-0.00520553
-0.00522962
-0.277138
-0.189826
-0.233339
0.239533
0.232399
0.257904
0.246814
0.249223
-0.0134455
-0.149886
0.157546
0.181649
-0.531277
-0.59645
-0.701591
-0.716969
-0.826045
0.32284
0.45134
0.451894
-0.44814
-0.366609
-0.507389
-0.292888
-0.357206
0.252671
0.259516
0.254575
0.26992
0.264449
0.266382
0.278459
0.275556
0.27709
0.228241
0.351851
0.0947337
0.0605901
-0.501464
-0.401718
-0.492307
-0.310333
-0.310948
-0.154004
-0.135936
-0.171348
-0.159217
-0.304668
-0.313458
-0.306413
-0.383026
-0.371486
0.189166
0.178557
0.207939
0.215107
0.255435
0.256337
0.25893
0.257425
0.682772
0.705146
0.71259
0.6864
-3.80525
-6.62005
-0.206732
-0.0666501
-0.0232482
-0.0119485
-0.00569262
-0.0119244
-0.00293856
-0.01282
-0.149861
-0.14759
-0.193213
-0.172599
0.396311
0.396998
0.733578
0.727644
0.719492
0.671457
0.261978
0.264142
0.269697
0.265552
-0.370438
-0.322605
-0.344407
0.477706
0.486415
0.486247
-0.000800747
-0.0849259
0.0809858
0.108093
0.38213
0.365269
0.380551
0.410604
0.446655
0.73016
0.748387
0.746652
0.755048
0.799149
0.815603
0.780851
0.22038
0.229513
0.224688
0.261145
0.258829
0.259763
0.254857
0.256551
0.254197
-0.303156
-0.689559
0.240731
0.257658
0.229332
0.241816
0.398099
0.469248
0.43189
0.440867
0.442625
-0.22611
-0.286026
0.0245646
-0.00505788
0.133209
0.167193
0.148108
0.653809
0.614453
0.664354
0.637897
0.599254
0.625115
-0.641613
-2.16286
-1.27032
0.290509
0.100469
0.189497
-0.170603
-0.160093
-0.149159
0.716298
0.795909
0.406806
0.567267
0.579439
0.486174
0.517614
0.57122
0.49586
0.531146
0.56714
0.54962
0.282113
0.25213
0.248277
0.538335
0.59435
-0.112547
-0.165346
-0.212287
-0.119424
-0.0609085
-0.0876041
0.763679
0.654087
0.729008
0.272435
0.27312
-0.0418926
-0.0814976
0.277221
0.277252
-0.0510623
-0.146489
0.171842
-1.10059
-0.125005
0.265629
0.256061
0.27283
-0.33318
0.128393
-0.315796
-0.160005
-0.193823
0.264759
0.205608
0.168371
-0.0458197
-0.31406
-0.253306
-0.458981
0.270095
0.268426
0.272307
0.273353
0.273983
-0.0847128
-0.0793494
-0.0578683
-0.237491
-0.150505
-0.171704
0.237807
0.254434
-0.417873
0.272484
0.274579
0.274428
0.267537
0.27324
0.271445
-0.227722
-0.173581
-0.314087
-0.0147949
0.101644
0.421031
0.518803
0.384387
0.157149
-0.0828641
0.319867
0.386309
0.287501
0.447701
0.443007
0.458741
-0.0633878
-0.209827
-0.0548536
-0.109643
0.263547
0.262184
0.254335
0.25148
0.267732
0.26581
0.270421
0.267331
0.270274
0.271685
-0.29245
-0.313491
-0.330534
-0.390729
0.0860319
0.340697
0.0212868
0.0519376
-0.0912432
-0.349449
-0.351305
-0.299078
-0.308389
-0.216452
-0.21094
-0.17676
-0.163164
-0.215416
-0.214652
-0.251606
-0.245168
-0.259346
0.258546
0.257638
0.263826
0.270752
0.214829
0.218748
0.185579
0.204607
0.190058
0.134962
0.16816
0.143305
-0.0474041
-0.064829
-0.032987
-0.308126
-0.277191
-0.216661
-0.153173
-0.220494
-0.141253
-0.143818
-0.346962
-0.339445
-0.420752
-0.536136
0.718723
0.664197
-0.146512
0.25937
0.265716
0.262563
0.26721
0.270351
0.271273
0.269003
0.265564
0.255145
0.256964
0.253196
0.253528
-0.358613
-0.494133
-0.319293
-0.386126
-0.12183
0.373921
0.114867
0.055505
0.0505964
0.267724
0.665494
0.463922
0.466615
0.491267
-0.602736
-0.205104
-0.535555
0.0840713
-0.093141
0.419057
0.470176
0.493282
0.439667
0.390501
-0.375689
0.283532
-0.304988
-0.261693
-0.0716642
-0.174958
0.46333
0.425806
0.430317
0.446029
0.465108
0.43033
0.408499
0.405299
0.442644
0.448039
0.240567
0.0174902
-0.0270388
-0.0647931
0.408413
0.2823
0.339732
0.25452
0.258351
0.26124
0.259758
0.242541
0.249826
0.245627
0.251198
0.254326
0.263483
0.263818
0.259222
0.261563
-0.29347
-0.30285
-0.272384
-0.382111
-0.3732
-0.421961
-0.315743
-0.180216
-0.215279
-0.025214
0.08385
-0.20466
-0.322483
-0.292559
-0.264353
-0.0793127
-0.0542334
-0.158534
-0.0726099
-0.0849608
-0.092687
0.00295017
0.00834659
-0.298896
-0.256275
-0.274197
-0.292393
-0.192646
-0.137179
-0.118575
-0.339241
-0.292046
-0.376689
-0.382095
-0.263023
-0.273193
-0.260397
-0.220667
-0.306722
-0.287607
-0.303112
-0.381339
-0.311761
-0.305976
0.253452
0.254897
0.255018
0.26376
0.277174
0.291968
0.256643
0.235887
0.227203
0.230191
0.205262
0.214655
0.210284
0.223095
0.24254
0.24994
0.249378
0.251692
0.235097
0.237051
0.224283
0.227196
0.204893
0.187738
0.176818
-0.217877
-0.136896
-0.200807
-0.168261
-0.0883675
-0.119833
-0.261754
-0.290921
-0.288656
-0.266218
-0.225622
-0.299406
-0.283851
-0.333557
-0.258937
-0.442695
-0.47523
-0.544885
0.627676
0.738554
0.55548
0.338572
0.342043
0.573497
0.665571
0.304792
0.477509
0.506238
0.29567
0.556469
0.264132
0.263746
0.261377
0.2608
0.26217
-0.275205
-0.175251
-0.159863
-0.110507
0.00881622
0.124724
0.0290017
-0.0935825
0.0431944
0.0509773
0.368802
0.385294
0.329932
0.355053
0.353157
0.180369
0.256895
0.311661
0.266275
0.309804
0.331816
0.293186
0.323182
0.270741
0.228786
0.227534
0.172748
0.193931
0.171399
0.153276
0.253654
0.232173
0.242231
0.233142
0.252741
0.280434
0.274832
0.301725
0.313567
0.238451
0.199419
0.208479
0.23595
0.19798
0.211278
0.226081
-0.0481777
-0.148686
-0.0598651
-0.351226
-0.266838
-0.282977
-0.328816
-0.286372
0.000219573
-0.699427
-0.671849
-1.30716
0.223243
0.694213
0.419271
0.390407
0.460897
0.438766
0.441911
0.466883
0.473531
0.397731
0.415364
0.419275
0.371027
0.395859
0.420226
0.4177
0.252625
0.13278
0.124047
0.084921
-0.0378997
-0.00623067
0.198392
0.120215
0.0472396
0.0522108
0.215947
0.106701
0.172031
0.210192
0.142404
0.0986391
0.297401
0.365383
0.356874
0.330627
0.246442
0.258681
0.28485
0.320721
0.347289
0.38218
0.250961
0.256635
0.257894
0.255477
0.252631
0.255472
0.255635
0.258133
0.258954
0.261932
0.26091
-0.296231
-0.268936
-0.300821
-0.311487
-0.267869
-0.27521
-0.22913
-0.234757
-0.254082
-0.245235
-0.278309
-0.276765
-0.278134
-0.266511
-0.141838
-0.122911
-0.138333
-0.186019
-0.0125793
0.125169
0.188247
0.0716415
-0.0385921
-0.00776758
0.0186697
-0.244814
-0.209959
-0.213254
-0.181664
-0.191905
-0.368075
-0.399166
-0.403476
-0.316549
-0.335347
-0.437993
-0.378583
-0.41607
-0.412399
-0.395819
-0.384023
0.237891
0.231392
0.233187
0.227608
0.226283
0.239653
0.243751
0.245302
0.250276
0.251901
0.243186
0.24804
0.251373
-0.413161
-0.389224
-0.416061
-0.453116
-0.428307
-0.380433
-0.395762
-0.152206
-0.224401
-0.219237
-0.260428
-0.383161
-0.326903
0.207773
0.204932
0.219273
0.43213
0.286027
0.204013
0.297906
0.400812
-0.00630153
0.194065
0.0250927
0.606465
0.494368
0.637583
0.265147
-0.0314488
0.121206
0.173346
-0.0207448
0.0496489
0.0642422
-0.0469776
-0.0159545
0.0138787
0.113878
-0.00719362
-0.0349227
-0.281341
-0.0973232
0.0306252
0.0092376
0.144615
0.209565
-0.0229736
-0.0981867
-0.141937
0.359686
0.379897
0.398723
0.36845
0.393156
0.315268
0.306273
0.324869
0.33377
0.327689
-1.03477
-0.742304
-1.68634
-0.997405
-0.547196
0.258236
0.216997
0.494187
0.384056
0.45336
0.437471
0.397194
0.361621
0.372728
0.406361
0.108238
0.218444
0.192046
0.199254
0.102209
0.0356538
0.334013
0.327408
0.366017
0.389955
0.354775
0.389223
0.248639
0.248309
0.248162
0.244898
0.243117
0.245057
-0.185851
-0.20792
-0.185717
-0.202572
-0.218374
-0.223638
-0.43949
-0.450092
-0.495996
-0.497273
-0.472559
-0.437017
-0.115876
-0.171305
-0.24334
-0.215703
-0.272066
-0.33509
-0.352826
-0.256105
-0.168476
-0.175836
0.126902
0.378579
0.203286
0.372369
0.209071
0.266367
0.212697
0.206032
0.237198
0.107641
0.183267
-0.046045
-0.55224
-0.459251
0.510131
0.530368
0.32071
0.13192
-0.0983235
0.0905559
0.281647
0.220064
0.26013
0.328546
0.322074
-0.262905
-0.194512
0.0615213
0.288783
-0.0402764
-0.0473204
-0.0523626
0.118861
0.0436071
)
;

boundaryField
{
    wall-4
    {
        type            zeroGradient;
    }
    velocity-inlet-5
    {
        type            zeroGradient;
    }
    velocity-inlet-6
    {
        type            zeroGradient;
    }
    pressure-outlet-7
    {
        type            fixedValue;
        value           uniform 0;
    }
    wall-8
    {
        type            zeroGradient;
    }
    frontAndBackPlanes
    {
        type            empty;
    }
}


// ************************************************************************* //
