/*--------------------------------*- C++ -*----------------------------------*\
| =========                 |                                                 |
| \\      /  F ield         | OpenFOAM: The Open Source CFD Toolbox           |
|  \\    /   O peration     | Version:  4.0                                   |
|   \\  /    A nd           | Web:      www.OpenFOAM.org                      |
|    \\/     M anipulation  |                                                 |
\*---------------------------------------------------------------------------*/
FoamFile
{
    version     2.0;
    format      ascii;
    class       volVectorField;
    location    "28";
    object      U;
}
// * * * * * * * * * * * * * * * * * * * * * * * * * * * * * * * * * * * * * //

dimensions      [0 1 -1 0 0 0 0];

internalField   nonuniform List<vector> 
918
(
(0.985168 -0.000496143 0)
(0.00500845 2.96625 0)
(-0.0415247 1.40514 0)
(0.9797 0.0021495 0)
(0.0121447 1.40787 9.89753e-20)
(-0.00704123 2.94879 -1.95845e-18)
(0.838362 1.18026 6.72509e-19)
(0.366851 0.167278 -1.03633e-20)
(0.999905 -0.000292118 0)
(0.0628575 0.854071 0)
(0.00618629 0.645399 0)
(0.732947 -0.00872112 0)
(0.0111377 2.93034 0)
(0.00209998 2.79514 0)
(-0.0175716 3.15942 1.02371e-18)
(-0.0186471 1.21522 2.49093e-19)
(0.459944 0.0645586 6.55549e-19)
(0.188923 1.21182 5.72057e-19)
(0.962791 0.00499524 0)
(-0.0478982 0.851185 0)
(0.0942883 0.20616 -5.06373e-19)
(1.00199 -0.00498479 0)
(1.00021 -0.00980514 0)
(0.975708 -0.0064432 0)
(0.611987 -0.0449655 0)
(0.016641 2.63692 0)
(-0.0150029 2.91013 6.84674e-19)
(-0.104674 1.32766 0)
(-0.115764 1.53899 0)
(-0.0613727 1.36963 0)
(-0.000490598 2.12276 0)
(0.0748855 1.46207 -7.81601e-20)
(0.043448 1.14793 0)
(-0.0206104 2.9876 -6.88529e-23)
(-0.016693 3.0053 1.52211e-18)
(0.00210282 3.00019 0)
(0.870076 -0.00933496 0)
(0.404265 0.9414 9.70329e-21)
(0.817735 1.19803 -9.22434e-19)
(0.967339 1.03502 8.78511e-19)
(0.686134 1.29257 -1.56147e-19)
(0.683694 1.28272 8.78334e-19)
(0.408033 0.260874 1.01109e-20)
(0.396966 0.148179 0)
(1.15435 0.558982 0)
(0.368893 0.262373 4.66118e-20)
(0.321415 0.170546 -4.83739e-20)
(0.919641 -0.00751535 0)
(1.00028 0.000146455 0)
(0.999913 0.000340229 0)
(1.00364 -0.00778793 0)
(1.00096 -0.000943132 0)
(1.00017 2.12785e-05 0)
(0.0819474 1.78453 -3.15685e-19)
(0.0423577 1.00539 0)
(0.0833594 0.932691 0)
(0.0203898 0.939073 0)
(0.032921 0.785314 0)
(0.0187986 1.99106 0)
(0.0223321 0.795251 0)
(0.00320784 0.688667 0)
(-0.0101272 0.747488 0)
(-0.0160091 0.625368 0)
(0.833747 -0.0142186 0)
(0.853209 0.025768 0)
(0.767307 0.000717157 0)
(0.827831 0.0323301 0)
(0.703943 -0.0160029 0)
(0.0146921 3.0004 7.18636e-19)
(0.0115047 3.00801 0)
(0.00611578 3.00279 0)
(0.0135458 2.99736 8.03836e-24)
(0.00797678 2.95846 -1.06807e-18)
(0.0144906 2.98203 0)
(0.0108451 2.90359 0)
(0.0244637 2.93053 1.47384e-24)
(0.00445569 2.82532 0)
(0.031184 2.91619 0)
(-0.00546574 2.74485 0)
(0.310005 3.55824 0)
(-0.132075 3.64001 0)
(0.140419 3.25022 -9.52688e-19)
(-0.0124 2.98447 0)
(-0.209549 1.98412 0)
(-0.0317938 1.45025 -2.45544e-19)
(-0.100145 1.35487 1.99062e-19)
(0.534096 0.152552 -2.25996e-19)
(0.458018 0.0365931 -2.18514e-19)
(0.515393 0.179826 -6.82649e-19)
(0.442186 0.0870671 -4.55606e-19)
(0.214668 0.913674 0)
(0.26936 1.35122 -6.05895e-19)
(0.383997 1.29865 9.97178e-19)
(0.98752 0.00850574 0)
(0.942089 0.00586095 0)
(1.0003 0.000571668 0)
(1.00287 0.00929992 0)
(1.00303 0.00842733 -1.41026e-18)
(0.991923 0.00971774 1.06487e-18)
(-0.0618914 0.914971 0)
(-0.031136 0.738154 0)
(-0.111975 1.2806 0)
(-0.0568224 1.04709 0)
(-0.0271265 0.99629 0)
(0.143787 0.214404 1.56496e-19)
(0.196441 0.192314 0)
(0.993517 -0.0084081 0)
(0.954368 -0.00650517 0)
(0.786463 0.0344033 0)
(0.741932 0.043618 0)
(0.669206 -0.0334703 0)
(0.956733 -0.00375099 0)
(0.674815 0.0597615 0)
(0.511613 -0.020537 8.94256e-19)
(-0.0363611 2.86386 3.84276e-19)
(0.0419438 2.90916 0)
(0.0551707 2.8846 0)
(-0.00486517 2.6988 0)
(-0.0129929 2.98528 6.3269e-19)
(-0.0180652 2.89529 0)
(-0.0153812 2.9881 -1.99438e-18)
(-0.0133129 2.92523 6.87869e-19)
(-0.219143 1.55042 0)
(-0.211399 1.67808 0)
(0.0406113 1.37554 8.82783e-21)
(0.0743626 1.34287 0)
(-0.0028411 1.14022 0)
(0.937455 -0.00779445 0)
(0.855391 -0.0094841 0)
(0.864108 0.00692776 0)
(0.948799 -0.00804117 0)
(0.883353 -0.00827233 0)
(0.517222 1.1358 -2.14092e-20)
(0.56739 1.18761 0)
(0.366846 0.884654 1.0187e-20)
(0.309073 0.744643 0)
(0.927123 1.07333 -2.52569e-19)
(1.04074 0.875312 5.15866e-19)
(0.377992 1.39063 0)
(0.538877 1.35952 0)
(0.544679 1.3196 0)
(0.10473 0.174486 -1.67095e-19)
(0.449731 0.242677 0)
(0.427067 0.133179 1.30112e-19)
(1.01137 0.929383 0)
(1.07894 0.777098 0)
(1.10444 0.719484 -4.4545e-19)
(1.134 0.618439 0)
(1.18156 0.403381 5.6875e-20)
(0.95732 -0.00869522 0)
(0.962274 -0.0100739 0)
(0.901365 -0.00814695 0)
(0.984114 -0.00920726 0)
(0.974561 -0.0093579 0)
(0.936971 -0.00634802 0)
(1.00018 0.00231963 0)
(1.0009 0.00143784 0)
(0.999902 0.000846162 0)
(0.0352878 2.0429 1.94116e-19)
(0.119593 1.72066 0)
(0.0115052 2.15749 2.01532e-19)
(0.0562442 1.8505 -1.13231e-19)
(0.134246 1.20342 -4.73305e-19)
(0.0434189 1.08203 0)
(0.104969 1.07663 0)
(0.0297011 0.887029 0)
(0.00835047 0.725179 0)
(-0.0103088 2.18116 2.13912e-21)
(0.0294539 1.98216 0)
(-0.0356531 2.15206 1.43957e-19)
(-0.00861813 1.97492 -2.86935e-19)
(0.00485547 0.856274 0)
(0.00593641 0.834348 0)
(-0.00436049 0.690885 0)
(-0.0193495 0.743978 0)
(-0.0262346 0.634407 0)
(0.930253 0.00717077 0)
(0.83882 -0.0143902 0)
(0.923241 -0.000615527 0)
(0.838151 -0.010861 0)
(0.81381 0.00448192 0)
(0.903924 0.0184303 0)
(0.882243 0.0211327 0)
(0.790386 0.00290653 0)
(0.00563384 3.06473 -6.38746e-21)
(0.0165539 3.05794 0)
(0.0146372 2.96909 0)
(0.00852417 2.87628 0)
(0.928334 3.97693 0)
(1.24372 3.30915 9.96866e-19)
(0.0703933 3.07674 0)
(-0.0278766 2.90734 0)
(-0.286904 1.69153 0)
(-0.290072 1.93315 0)
(-0.243847 1.80995 0)
(-0.0617821 2.1464 -2.95799e-20)
(-0.220543 2.07737 0)
(-0.131159 2.03475 0)
(-0.111237 1.80263 -5.49227e-21)
(-0.130772 1.81072 -1.29321e-19)
(-0.112724 1.60543 -2.03521e-19)
(-0.133616 1.58871 0)
(0.56213 0.124479 3.33404e-19)
(0.475481 0.0123526 -3.26427e-19)
(0.26105 1.54863 0)
(0.262661 0.689371 -2.27729e-19)
(0.177932 1.63581 -7.64229e-19)
(0.226472 1.16381 7.66171e-19)
(0.902515 0.00670033 0)
(0.967629 0.0109919 0)
(0.974748 0.0107318 0)
(0.923655 0.00662244 0)
(-0.0185007 0.763733 0)
(-0.0329274 0.815278 0)
(-0.0400231 0.683189 0)
(0.312717 0.254368 4.26497e-19)
(0.254764 0.230471 -5.08792e-19)
(0.267292 0.182073 0)
(1.08552 0.0869353 2.12986e-21)
(1.06883 0.0405887 0)
(0.997466 0.0413232 0)
(0.892051 -0.000421064 0)
(0.585774 0.095346 0)
(0.61538 0.0713401 -1.43722e-18)
(0.490375 -0.00114945 5.46071e-19)
(0.00926305 2.98106 4.6496e-19)
(-0.0330314 2.86612 4.65101e-20)
(0.00372568 3.05021 -1.37482e-20)
(0.0200963 3.04344 4.93391e-19)
(-0.0149933 2.99657 2.28199e-20)
(-0.0129927 2.94948 -9.22438e-23)
(-0.0172742 3.01195 -4.3072e-19)
(0.0148692 3.02383 3.11627e-19)
(0.00736394 3.03682 -4.88141e-19)
(0.931155 -0.00143674 0)
(0.937705 -0.00373918 0)
(0.843325 -0.00883654 0)
(0.956916 0.0115246 0)
(0.943425 0.0125015 0)
(0.882193 0.00642567 0)
(0.919431 0.0153156 0)
(0.927373 0.0141467 0)
(0.840006 0.00557363 0)
(0.72216 1.41553 2.72651e-19)
(0.756037 1.52493 0)
(0.201027 0.352175 3.49966e-20)
(0.199086 0.638512 2.83081e-19)
(0.252576 0.713971 -1.64585e-19)
(0.275421 0.555652 3.15682e-19)
(0.313721 0.742643 9.2117e-19)
(0.119672 0.203458 2.44538e-19)
(0.491904 0.200531 4.87168e-19)
(0.473354 0.21796 1.23764e-19)
(0.434345 0.111897 2.44642e-19)
(1.16997 0.460299 2.47708e-19)
(1.18195 0.254856 2.55807e-19)
(0.0108413 2.19566 3.96831e-20)
(0.0422551 1.9005 0)
(0.954855 0.0302288 0)
(0.929567 0.013737 0)
(0.8536 -0.0129287 0)
(0.0112394 3.07461 0)
(0.0198263 2.94405 8.5736e-19)
(0.0164765 2.95644 0)
(0.00617872 2.85072 -8.50611e-19)
(0.0061337 3.091 2.0404e-19)
(0.00723872 3.08248 0)
(0.789452 1.82826 -2.2433e-19)
(1.25151 2.50745 6.11838e-19)
(0.771756 1.96818 -1.44297e-18)
(0.0205697 2.98255 -3.55925e-19)
(0.0362561 3.00359 0)
(-0.0330663 2.88011 0)
(-0.0639065 2.08526 3.78147e-21)
(-0.115245 1.98113 2.72338e-19)
(-0.0457921 1.92787 4.56241e-21)
(0.274367 1.35573 7.44012e-19)
(0.214805 0.469188 -5.12293e-19)
(0.0648348 1.96741 5.12482e-19)
(0.137745 1.85539 -6.34926e-19)
(0.177765 1.45761 8.62682e-20)
(0.00178487 3.11904 -1.21541e-18)
(0.014874 3.11844 1.3077e-18)
(-0.00879495 2.98129 5.54544e-19)
(-0.00363228 2.97771 -4.97554e-19)
(-0.0211607 2.88155 -5.64789e-19)
(0.00870141 3.10018 -1.5e-18)
(0.00244502 3.10546 1.46754e-18)
(0.255308 0.656589 0)
(0.213426 0.645333 -5.73195e-19)
(0.103661 0.217673 2.5723e-19)
(0.334027 0.864352 7.34637e-19)
(0.176703 0.24358 -1.12711e-18)
(1.17292 0.17348 -3.37076e-20)
(1.18256 0.30859 0)
(1.16103 0.121149 9.42185e-20)
(-0.00394074 2.20026 1.65222e-21)
(0.00504369 2.21034 0)
(0.0227744 1.9495 0)
(0.336869 1.25458 -2.69546e-19)
(0.358006 1.07553 -5.75859e-19)
(0.187891 0.337863 9.9956e-19)
(1.00585 -0.0108846 0)
(1.00765 -0.00767748 2.58372e-19)
(-0.231801 1.50989 0)
(-0.237132 1.42625 0)
(1.0022 0.00350588 1.8018e-21)
(1.00373 0.0094674 5.30206e-19)
(-0.0762277 2.1799 3.73834e-20)
(-0.0523725 2.22024 0)
(0.0368893 3.18009 1.65401e-19)
(0.39758 3.49483 0)
(1.12941 0.650261 4.0745e-20)
(1.01299 0.0129952 -2.12948e-21)
(1.02118 -0.0105048 0)
(1.00172 0.000163584 9.43048e-23)
(0.104217 1.35385 0)
(0.149753 2.57549 0)
(0.0943326 1.18936 0)
(-0.000117834 2.61911 -1.59207e-19)
(-0.0399396 2.59404 -1.57395e-19)
(1.00591 0.0292739 2.7626e-21)
(1.05961 -0.000659523 0)
(1.08475 0.0153427 0)
(-0.293895 1.94478 0)
(-0.207743 2.49295 0)
(-0.194258 1.1321 0)
(0.275433 1.46355 -3.86272e-19)
(1.01124 -0.00972756 0)
(1.00934 -0.0149849 0)
(1.00246 0.000738821 3.29785e-19)
(1.00548 -0.00485416 -3.87922e-19)
(1.00118 -0.00104658 0)
(-0.359844 1.79707 0)
(-0.291827 1.53789 0)
(-0.307601 1.70243 0)
(-0.204427 1.13009 0)
(-0.255023 1.27944 0)
(-0.183438 1.15348 0)
(1.03425 -0.00676454 0)
(1.02089 0.0155816 -1.00783e-21)
(0.788786 1.25522 4.68766e-19)
(1.00225 0.000363326 -3.27973e-19)
(1.0041 0.00525233 3.86678e-19)
(1.00116 0.00203856 0)
(1.0129 0.0101996 3.23214e-19)
(1.00801 0.00825637 -3.97659e-19)
(1.00864 0.0146292 0)
(-0.19007 2.48524 0)
(-0.115227 2.35922 -2.54256e-19)
(-0.11959 2.36825 2.06215e-19)
(1.20206 0.26076 5.41365e-20)
(1.13941 0.087033 0)
(0.0466901 3.07728 -5.8052e-19)
(0.0663636 2.85263 -4.50911e-20)
(0.143427 3.1945 9.2102e-19)
(0.138179 3.22366 -3.6013e-20)
(0.136358 3.2366 0)
(0.0209527 3.13798 1.32837e-19)
(0.0779461 3.16093 5.67407e-19)
(0.0705264 3.18749 -2.54576e-19)
(0.0239549 3.12914 0)
(0.659988 0.310656 0)
(0.576855 0.370326 0)
(1.10133 0.678583 -1.73676e-19)
(1.09823 0.810194 2.8639e-19)
(1.15802 0.569448 0)
(1.18755 0.513505 0)
(1.01617 0.0132863 -5.993e-19)
(1.01497 0.0142596 7.49922e-19)
(1.02507 -0.0101684 0)
(1.02305 -0.0123605 0)
(1.00653 0.00250355 0)
(1.01042 0.00362512 0)
(1.00436 0.00188949 0)
(1.00976 0.0060904 0)
(1.00792 0.00580593 0)
(1.00452 0.00465793 0)
(0.0935457 1.35157 0)
(0.0881454 1.31751 0)
(0.118323 1.38217 0)
(0.130069 1.40711 0)
(0.146352 2.59814 0)
(0.187742 2.65897 -2.4448e-19)
(0.102245 2.65512 0)
(0.0873267 2.6587 1.91451e-20)
(0.0341253 2.67982 1.45593e-19)
(0.102249 1.14949 0)
(0.0539689 1.02995 0)
(0.0978354 1.2433 0)
(0.0110989 1.20078 0)
(0.0380136 1.98102 2.00572e-19)
(-0.0541503 2.6127 -2.09939e-19)
(-0.0157111 2.65746 -2.51065e-19)
(-0.0345025 2.66038 0)
(-0.0902167 2.63161 4.45113e-19)
(-0.0983997 2.61598 3.00717e-19)
(-0.000230851 2.03683 -1.34869e-19)
(-0.0460631 2.47846 2.92354e-19)
(0.000292225 2.46973 2.97342e-19)
(1.01474 0.0348716 6.02168e-19)
(1.00881 0.0189762 -7.41139e-19)
(1.0063 0.0414774 -6.09652e-19)
(0.987616 0.0220099 7.83267e-19)
(1.06052 0.00432838 0)
(1.04683 -0.0103802 0)
(1.08417 0.0233466 0)
(1.06781 0.00530831 0)
(1.06418 -0.00525748 0)
(1.12295 0.0762262 0)
(1.09642 0.0383509 0)
(1.09775 0.0304385 0)
(-0.178528 2.24513 1.12555e-20)
(-0.31766 2.12145 0)
(-0.239242 2.12535 0)
(-0.226641 2.58403 -1.86897e-19)
(-0.221764 2.54531 5.62306e-21)
(-0.394595 1.92278 -2.12317e-19)
(-0.341475 1.80892 2.13645e-19)
(-0.335544 1.48738 0)
(-0.355298 1.51456 0)
(-0.344637 1.54578 0)
(-0.167492 1.11304 0)
(-0.0704738 0.959521 0)
(0.372004 1.4762 7.27061e-19)
(0.40551 1.48769 2.94175e-19)
(0.593276 2.44571 -1.70667e-19)
(0.405582 2.53892 4.73465e-19)
(0.352799 2.08556 -2.73033e-20)
(1.02087 -0.00841241 0)
(1.01543 -0.00991003 0)
(1.01481 -0.0156062 0)
(1.00765 -0.00142111 0)
(1.00498 -0.00105802 0)
(1.00774 -0.00489953 0)
(1.00921 -0.00385096 0)
(1.01411 -0.00454423 0)
(1.02161 0.0157794 5.7667e-19)
(1.01825 0.015716 -7.41918e-19)
(1.02207 0.0175819 -5.78613e-19)
(1.01957 0.0162914 7.2468e-19)
(0.756824 1.30527 0)
(0.690334 1.35969 5.39746e-19)
(0.86678 1.19951 3.07239e-19)
(0.910285 1.1574 -4.08758e-19)
(1.16045 2.61439 -3.82476e-19)
(0.826765 0.0963373 3.52282e-19)
(1.13961 0.103808 0)
(1.18295 0.186181 -3.98288e-20)
(1.1678 0.158016 -1.56508e-21)
(1.00074 0.129095 0)
(0.139429 2.96347 2.14606e-19)
(0.117379 2.8691 -7.52203e-19)
(0.0291909 2.36814 5.27411e-19)
(0.0941535 0.0289097 -2.24582e-19)
(0.342305 3.42368 -3.95896e-19)
(0.195805 3.31579 0)
(0.238412 3.35815 5.15585e-19)
(0.248457 3.03623 -9.62722e-19)
(0.342987 3.19521 0)
(0.00728076 3.12081 2.94856e-20)
(0.0168376 3.12981 -3.68311e-19)
(0.0154879 3.1258 5.42096e-19)
(0.0367202 3.13991 0)
(0.0352715 3.15099 0)
(1.22019 2.61427 0)
(0.547059 0.841067 -2.98508e-19)
(1.02969 0.983131 -1.63993e-19)
(0.966991 1.05382 0)
(0.813089 0.957287 2.25037e-20)
(1.0525 0.867852 3.0212e-20)
(0.374119 0.417774 -5.97643e-19)
(0.702397 0.32334 -2.2446e-20)
(0.690601 0.253601 2.68511e-19)
(0.591716 0.399249 2.04101e-20)
(0.511903 0.377603 -8.29742e-19)
(0.67023 0.351708 0)
(0.69318 0.433258 4.44563e-19)
(0.699528 0.430808 0)
(0.628685 0.386675 0)
(0.610929 0.319055 0)
(0.779939 0.613573 1.8978e-19)
(1.19861 0.278876 -6.01837e-20)
(1.19358 0.414564 0)
(1.208 0.363333 0)
(0.768565 0.202715 3.96005e-19)
(0.825237 0.541484 -2.2895e-19)
(0.731806 0.517506 3.8206e-19)
(0.922315 0.418904 -3.79241e-19)
(1.02001 0.0143956 3.98498e-19)
(1.01795 0.0141299 -4.04335e-19)
(1.01598 0.0155877 0)
(1.03559 -0.00640943 0)
(1.02936 -0.00887145 -3.69195e-19)
(1.02705 -0.0126849 3.6541e-19)
(1.02517 0.00932612 0)
(1.02379 0.0129712 0)
(1.01145 0.0039018 0)
(1.01435 0.00880323 0)
(1.0151 0.00367122 0)
(1.01412 0.00272772 0)
(0.0682558 1.33985 0)
(0.0594467 1.28948 0)
(0.153357 1.33725 2.73076e-19)
(0.258588 1.461 2.18422e-19)
(0.150257 1.43659 4.63972e-19)
(0.179333 1.44368 -7.57105e-19)
(0.172724 1.3735 0)
(0.123661 1.59123 2.10624e-19)
(0.115781 1.56424 0)
(0.350288 2.03986 3.96752e-20)
(0.351532 2.37066 3.01391e-19)
(0.183726 1.44 -1.83784e-19)
(0.260377 1.36288 1.60139e-19)
(0.19237 1.35384 -1.28246e-19)
(0.26772 1.30137 2.40168e-19)
(0.234296 1.57441 0)
(0.253934 1.61664 -1.48988e-19)
(0.0506248 2.27411 7.87303e-20)
(0.0394933 2.67054 0)
(0.0665978 2.40797 -1.22009e-19)
(0.0484941 2.42625 0)
(0.073062 2.67102 -2.24207e-20)
(0.0454008 2.69866 0)
(0.15456 1.47636 3.09964e-19)
(0.081841 1.52928 0)
(0.0789175 1.39552 0)
(0.165419 1.38668 -3.49443e-19)
(-0.0042504 2.64528 -2.57631e-20)
(0.0204006 2.69716 -1.95155e-19)
(0.00797926 2.71706 -1.31751e-21)
(0.0984265 2.00755 -2.71794e-19)
(0.101517 1.73118 -9.95403e-20)
(0.0207039 1.01338 0)
(0.00920403 0.91799 0)
(0.0308137 1.58233 -3.59143e-19)
(0.0612264 1.44227 -3.66189e-19)
(0.06713 1.54845 4.60791e-19)
(0.0333922 1.59668 0)
(-0.269997 2.41206 7.78155e-19)
(-0.241098 2.59494 -3.0179e-19)
(-0.256683 2.57108 8.69616e-20)
(0.0482599 2.02082 3.29621e-19)
(-0.154634 2.59068 1.31222e-19)
(-0.0691397 2.52119 -3.74611e-19)
(1.02066 0.0202236 -3.93213e-19)
(1.0179 0.0254667 3.9521e-19)
(1.01475 0.0168843 0)
(1.01871 0.0596208 5.59413e-19)
(0.996862 0.0512701 -6.48769e-19)
(0.960443 0.0340796 7.40825e-19)
(1.01717 0.0903072 -7.33303e-20)
(1.04189 -0.0065707 0)
(1.04929 -0.00295403 3.38549e-19)
(1.03811 -0.0107692 -3.38981e-19)
(1.06619 0.0323427 -1.91778e-20)
(1.06008 0.0151643 1.68837e-19)
(1.06234 0.0443699 0)
(1.05782 0.0375391 -6.19567e-20)
(1.03493 0.035681 0)
(1.02895 0.0332097 0)
(1.02748 0.0124439 0)
(1.02436 0.0152627 0)
(1.04076 0.0263239 1.28583e-19)
(1.03805 0.0212126 -2.90187e-19)
(1.05234 0.0245267 -1.32961e-19)
(1.04982 0.024511 -1.49767e-19)
(1.07273 0.0523303 2.7832e-19)
(1.08475 0.04462 0)
(1.09204 0.0919899 0)
(-0.299424 2.39676 2.58008e-19)
(-0.336207 2.15919 1.77576e-20)
(-0.325513 2.20714 0)
(-0.238963 2.41066 -2.55411e-19)
(-0.204731 2.29022 -2.88106e-20)
(-0.213488 2.36645 4.67274e-20)
(-0.150011 2.63863 -2.4789e-19)
(-0.205771 2.6125 2.37725e-20)
(-0.199719 2.59809 -9.96076e-20)
(-0.210765 2.61583 1.63702e-19)
(-0.182722 2.59043 -1.99555e-19)
(-0.403179 1.72545 -2.04411e-20)
(-0.358565 1.95421 -3.86581e-19)
(0.362442 1.40912 -3.56182e-19)
(0.359129 1.35138 -3.1983e-19)
(0.638716 1.40653 -5.22172e-19)
(0.506657 1.4724 -2.846e-19)
(0.556187 1.44812 0)
(0.589257 2.41998 1.39466e-19)
(0.656431 2.40953 2.45907e-19)
(0.411101 2.51502 7.99577e-20)
(0.404868 2.55665 -2.46526e-19)
(0.51524 2.51209 3.25933e-19)
(0.547026 2.45921 0)
(0.487969 2.50821 -3.90761e-19)
(0.247741 2.58702 6.91538e-19)
(0.353316 2.56286 -8.07895e-20)
(0.285309 2.64628 -1.02204e-18)
(0.932019 2.38473 3.34605e-19)
(0.828839 2.38488 0)
(1.01097 0.000109157 1.31773e-20)
(1.01513 -0.00551305 -1.06751e-20)
(1.01742 -0.00363728 -1.93901e-19)
(1.01474 -0.00106327 1.95038e-19)
(1.01221 0.000748905 0)
(0.625193 1.27452 0)
(0.641298 1.16142 0)
(0.744364 1.06548 0)
(0.634008 1.13295 0)
(1.18767 2.63079 5.67749e-20)
(1.07788 2.3732 0)
(0.845101 2.2096 -6.92828e-22)
(0.827432 2.47177 0)
(0.921303 2.55833 -5.98185e-20)
(0.957889 2.51274 3.98816e-20)
(0.837995 0.146266 0)
(0.806161 0.137927 9.98143e-20)
(0.926033 0.121826 5.32049e-19)
(0.855652 0.119296 -2.09317e-19)
(0.838866 0.0615777 -6.29786e-19)
(1.05496 0.221026 -3.76214e-19)
(0.973104 0.273767 -1.57424e-20)
(0.908209 0.270365 4.889e-19)
(0.989486 0.202272 3.77513e-19)
(0.943375 0.161108 -6.82257e-19)
(0.915212 0.170304 8.72593e-20)
(0.941419 0.232773 -1.75861e-19)
(0.919258 0.192503 0)
(0.984861 0.162249 3.30657e-19)
(1.03232 0.169268 0)
(1.02689 0.195428 0)
(1.08783 0.11224 1.2238e-19)
(1.05858 0.161172 -1.32688e-20)
(1.04932 0.224811 -6.78421e-20)
(1.08294 0.19493 0)
(1.02584 0.0401785 3.00275e-19)
(1.04592 0.0490692 3.62517e-19)
(1.03678 0.0366363 -2.9857e-19)
(1.04827 0.0549946 -2.43654e-19)
(1.02293 0.0629102 -3.93744e-19)
(0.985974 0.131658 0)
(1.00298 0.0851612 0)
(0.972482 0.0485495 -2.6686e-19)
(0.926541 0.0641338 1.08943e-19)
(1.04045 0.0884359 3.40103e-19)
(1.06285 0.112548 -3.65536e-19)
(1.0667 0.140912 3.31752e-19)
(1.03039 0.128582 0)
(1.07099 0.0988073 0)
(1.05842 0.0784799 -1.51034e-19)
(1.05095 0.0846442 -2.74602e-19)
(0.58771 1.09115 -4.75535e-20)
(0.620544 1.4238 1.49498e-19)
(1.16086 2.74708 3.4315e-20)
(1.22708 3.08678 -5.57235e-20)
(1.25191 2.72922 4.23353e-19)
(1.28296 2.71268 -2.78664e-19)
(1.21126 2.35337 -9.24178e-21)
(1.21407 2.99123 1.35604e-19)
(1.23291 2.95672 -1.23236e-19)
(1.21845 3.24051 -2.42802e-19)
(1.37968 2.9732 3.35935e-19)
(1.37121 2.89129 0)
(0.54579 0.848063 -2.08305e-20)
(0.144748 1.26661 4.12491e-19)
(0.525154 0.475088 3.92357e-19)
(0.361976 0.233031 4.26137e-19)
(0.530913 0.406704 4.66412e-19)
(0.540526 0.491506 -7.41273e-19)
(0.542524 0.495007 6.07519e-19)
(0.496987 0.423152 -2.36905e-19)
(0.429023 0.364013 5.44017e-19)
(0.769841 0.257834 -2.23081e-19)
(0.730241 0.289548 0)
(0.726736 0.228797 1.01287e-20)
(0.712865 0.517789 2.29638e-19)
(0.681561 0.491408 -8.45197e-19)
(0.602574 0.488324 1.65015e-20)
(0.619839 0.476258 0)
(0.672293 0.732958 1.99829e-19)
(0.810991 0.7664 1.26863e-19)
(0.740893 0.846544 -1.54679e-19)
(0.854057 0.800175 -4.56266e-20)
(0.884541 0.837645 3.69181e-21)
(0.893089 0.839992 -3.7796e-21)
(0.820077 0.641474 -3.20402e-19)
(0.899119 0.693396 4.23815e-20)
(0.955384 0.704162 0)
(0.944543 0.679068 -5.24537e-20)
(0.999166 0.315105 9.36044e-20)
(1.11121 0.287474 6.1129e-20)
(1.03925 0.257394 1.53766e-19)
(0.978319 0.34814 -2.03007e-19)
(1.02319 0.414506 0)
(1.07828 0.40321 0)
(0.896571 0.351986 5.08224e-21)
(0.837163 0.287202 0)
(0.855674 0.27511 2.4472e-19)
(0.891954 0.277198 -6.3753e-21)
(0.914038 0.421904 1.04472e-18)
(0.87107 0.484169 2.67402e-19)
(0.87594 0.448978 -3.19469e-19)
(0.806822 0.43601 3.42905e-19)
(0.789519 0.43449 2.23716e-19)
(0.758248 0.419817 -2.19655e-19)
(1.0279 -0.000616295 3.17638e-19)
(1.02021 -4.15494e-05 0)
(1.0186 0.000872705 2.08505e-19)
(1.02106 -0.00216005 -4.69851e-19)
(1.02218 0.00416549 2.28709e-19)
(1.02036 0.0107547 -4.79671e-19)
(1.02139 0.0101634 0)
(1.02095 0.0103609 -1.0081e-19)
(1.01606 0.00739983 2.52888e-19)
(1.01681 0.0101318 -1.26381e-19)
(1.01747 0.00943688 9.29698e-20)
(0.0711444 1.30093 0)
(0.0767704 1.35864 0)
(0.0538033 1.32343 0)
(0.0395735 1.25678 0)
(0.0635224 1.37563 -5.88307e-19)
(0.0865384 1.34155 1.84209e-19)
(0.105327 1.51074 1.29121e-19)
(0.0942251 1.34006 -1.40765e-19)
(0.0433365 1.46162 3.6016e-19)
(0.0372289 1.44921 -2.78322e-19)
(0.0543668 1.3638 -4.75201e-21)
(0.054195 1.36828 3.58517e-19)
(0.0548121 1.34723 5.27927e-20)
(0.0428942 1.39189 4.80343e-20)
(0.101948 2.38947 1.38548e-19)
(0.0965374 2.42737 0)
(0.164599 2.06536 -1.12212e-20)
(0.101033 1.70942 -8.17643e-20)
(0.228193 2.06359 9.50502e-21)
(0.209732 2.45556 0)
(0.269473 2.40899 -2.03614e-19)
(0.301818 2.40978 1.45219e-19)
(0.227426 2.02356 2.71651e-20)
(0.146917 2.18656 2.24851e-20)
(0.14611 2.30842 0)
(0.0207278 1.87052 3.68209e-19)
(-0.00775293 2.39554 3.66497e-19)
(-0.0362745 2.15853 0)
(0.00203919 2.46315 -1.29619e-20)
(0.010118 2.31213 -1.67256e-19)
(0.148086 1.43439 -6.93223e-20)
(0.122166 1.31672 1.19581e-18)
(0.084926 1.39112 -3.80706e-19)
(0.152757 1.47745 -3.49536e-19)
(0.153464 1.51385 0)
(0.0720015 1.32327 0)
(-0.0984264 1.01849 -4.38526e-19)
(-0.0669813 1.18041 1.41629e-19)
(0.0129937 1.23966 0)
(-0.0445305 0.963516 -3.24013e-19)
(-0.0510264 0.915405 6.44102e-19)
(1.04025 0.0106063 0)
(1.04657 0.00648764 -3.18001e-20)
(1.03894 0.0194633 -2.31681e-19)
(1.04754 0.0160936 0)
(1.05158 0.015722 0)
(1.03518 0.0101589 -6.2506e-21)
(1.03113 0.0106439 3.77901e-19)
(1.03093 0.0149537 4.58349e-19)
(1.02613 0.0188869 0)
(1.02371 0.0197106 0)
(1.03486 0.0219789 2.32626e-19)
(1.02577 0.0249945 0)
(1.02569 0.0234912 0)
(-0.186331 2.30309 0)
(-0.329181 2.07264 -4.68769e-20)
(-0.291712 2.1986 -1.76182e-19)
(-0.0609401 1.24345 0)
(-0.269956 1.86676 -3.15789e-19)
(-0.286953 1.60093 1.48443e-19)
(-0.187371 1.24599 0)
(0.393173 1.69531 0)
(0.359471 1.27755 5.21692e-19)
(0.302136 1.33618 0)
(0.413893 1.27422 -6.92291e-19)
(0.459045 1.44516 0)
(0.439328 1.38555 3.25923e-19)
(1.0305 2.70181 -6.55175e-21)
(0.955538 2.41794 -4.21914e-19)
(0.899975 2.18193 4.7855e-19)
(0.840979 2.37797 1.43347e-19)
(0.844415 2.51601 0)
(0.913454 2.50967 0)
(0.91525 2.37851 0)
(0.893203 2.36047 -5.4827e-19)
(0.69308 2.49085 -8.25738e-20)
(0.801262 2.48218 -2.87363e-20)
(0.812936 2.45357 2.1991e-20)
(0.690108 2.38808 0)
(0.793926 2.387 0)
(0.753433 2.39711 -2.54133e-19)
(0.769868 2.50518 0)
(0.604955 1.08333 0)
(0.493742 0.937232 -1.06191e-19)
(0.557139 0.965271 -7.7049e-21)
(0.527751 1.06915 0)
(0.529834 1.02159 1.61437e-19)
(0.763985 0.865383 -1.52039e-20)
(0.770664 1.0037 0)
(0.745956 0.960355 -1.36298e-20)
(0.639168 1.02274 0)
(0.642076 0.937248 0)
(1.16595 2.76924 -1.29037e-21)
(1.14468 2.83273 7.98151e-20)
(0.936958 2.35768 -2.07325e-19)
(0.903655 2.33556 1.23127e-20)
(1.12985 2.74386 0)
(1.08161 2.71494 -1.46083e-20)
(1.08904 2.49564 -1.26865e-19)
(0.984329 2.23706 -3.04048e-20)
(0.50048 1.37246 0)
(0.512159 1.08183 4.19713e-20)
(0.546311 1.15001 0)
(0.860555 0.215303 0)
(0.814849 0.169416 0)
(0.772708 0.15102 0)
(0.852436 0.222293 -3.85009e-19)
(0.789958 0.216668 2.35014e-19)
(0.935742 0.0524867 -2.23855e-19)
(0.951386 0.10021 0)
(0.925491 0.10572 9.8973e-20)
(0.87968 0.0833234 4.02127e-19)
(0.863301 0.0457608 -2.48473e-19)
(1.16605 3.36577 -9.2761e-19)
(1.21353 3.28502 0)
(1.16456 3.39345 -1.84191e-18)
(0.651078 3.55387 1.57806e-18)
(0.877319 3.12024 3.10694e-19)
(0.521622 0.864385 3.12678e-19)
(0.443143 0.862644 0)
(0.345336 0.508223 -9.73666e-20)
(0.447591 0.689003 4.84096e-19)
(0.528181 0.478193 -1.29922e-19)
(0.505442 0.5243 1.50799e-19)
(0.648447 0.543096 3.17313e-19)
(0.678939 0.56538 0)
(0.632404 0.622539 0)
(0.587857 0.563407 0)
(0.950812 0.5889 -2.35503e-20)
(0.872985 0.532532 -2.59275e-19)
(0.898543 0.565714 1.51808e-19)
(0.932358 0.501519 -1.94e-19)
(1.035 0.473457 0)
(1.04407 0.561614 -2.48476e-20)
(0.833101 0.387957 -4.99384e-19)
(0.837774 0.372963 -5.87565e-19)
(0.78781 0.382197 3.9092e-19)
(0.780751 0.352495 -4.28965e-19)
(0.835955 0.312219 -3.21205e-19)
(0.791201 0.307875 3.94871e-19)
(1.02653 0.00524684 -2.36929e-19)
(1.02621 0.00550012 4.78975e-19)
(1.02921 -0.000867092 3.04447e-19)
(1.033 8.27549e-05 -3.66793e-19)
(1.03318 0.00829947 0)
(1.02974 0.00849948 -5.9155e-19)
(0.0358675 1.65044 -4.64464e-20)
(0.0355141 1.57007 0)
(0.0857003 1.70042 -4.0889e-19)
(0.0887451 1.68385 3.78209e-19)
(0.0907915 1.52575 -2.42211e-19)
(0.075475 1.48909 0)
(0.0787531 1.98909 0)
(0.0636409 1.54735 1.55792e-19)
(-0.0315999 1.48242 -1.40783e-19)
(-0.141009 1.80772 -1.45681e-20)
(-0.130086 2.2394 2.75188e-19)
(-0.100108 2.21701 -1.04184e-19)
(0.493984 1.38004 2.87389e-19)
(0.48847 1.38572 -3.07582e-19)
(0.436014 1.27346 3.37721e-19)
(0.431716 1.29266 -1.94832e-20)
(0.618754 1.28743 0)
(0.53594 1.37422 4.51534e-19)
(0.550685 1.38341 -4.39464e-19)
(0.442132 1.2619 -3.25246e-19)
(0.496065 1.21732 0)
(0.550916 1.18715 0)
(0.659446 2.44941 1.21356e-19)
(0.669352 2.47715 6.65821e-19)
(0.71799 2.49341 -4.58084e-19)
(0.623053 2.47584 -1.35884e-19)
(0.562425 2.56865 1.32238e-19)
(0.51236 2.5406 -3.79126e-19)
(0.970251 2.38171 -2.60812e-19)
(1.01095 2.39983 0)
(0.914643 2.16238 -3.27981e-19)
(1.05027 2.69548 0)
(1.05236 2.68255 0)
(0.619457 2.27982 1.54705e-19)
(1.04685 3.16734 4.04926e-19)
(0.917791 3.03687 -3.39287e-19)
(0.286282 0.93193 0)
(0.327896 0.794466 -1.91376e-19)
(0.488826 0.750738 -1.29298e-19)
(0.393894 2.02745 0)
(0.469114 2.78767 -2.16303e-19)
(0.427139 2.55235 0)
(0.68213 0.684514 -4.17891e-19)
(0.756378 0.676475 5.48227e-19)
(0.774493 0.623747 -5.38213e-19)
(0.660642 0.653757 -5.9082e-20)
(0.710538 0.601764 -2.43064e-19)
(1.0092 2.77201 -3.07885e-19)
(1.04417 2.82699 1.92823e-19)
(0.64509 2.16173 2.06946e-19)
(0.605546 1.7265 -1.71275e-19)
(0.70616 1.91743 3.44628e-21)
(0.995133 2.45561 -7.74747e-20)
(0.998001 2.44891 -6.77024e-20)
(0.670002 1.85729 1.93174e-21)
(0.462873 1.34819 -3.24356e-20)
)
;

boundaryField
{
    wall-4
    {
        type            noSlip;
    }
    velocity-inlet-5
    {
        type            fixedValue;
        value           uniform (1 0 0);
    }
    velocity-inlet-6
    {
        type            fixedValue;
        value           uniform (0 3 0);
    }
    pressure-outlet-7
    {
        type            zeroGradient;
    }
    wall-8
    {
        type            noSlip;
    }
    frontAndBackPlanes
    {
        type            empty;
    }
}


// ************************************************************************* //
