/*--------------------------------*- C++ -*----------------------------------*\
| =========                 |                                                 |
| \\      /  F ield         | OpenFOAM: The Open Source CFD Toolbox           |
|  \\    /   O peration     | Version:  4.0                                   |
|   \\  /    A nd           | Web:      www.OpenFOAM.org                      |
|    \\/     M anipulation  |                                                 |
\*---------------------------------------------------------------------------*/
FoamFile
{
    version     2.0;
    format      ascii;
    class       volScalarField;
    location    "59";
    object      p;
}
// * * * * * * * * * * * * * * * * * * * * * * * * * * * * * * * * * * * * * //

dimensions      [0 2 -2 0 0 0 0];

internalField   nonuniform List<scalar> 
918
(
0.556513
1.18544
0.00112838
0.555941
-0.0126709
1.15247
-0.508675
0.676081
0.536704
-0.110462
-0.044603
0.536559
1.01297
0.778927
-1.12509
-0.00990338
0.651625
-0.383144
0.535801
-0.0551281
0.701791
0.543251
0.546277
0.536857
0.600251
0.754965
0.893874
0.0216143
0.00918465
0.00477846
-0.0122646
-0.0396997
-0.0333432
1.03612
1.0872
1.10989
0.504553
0.331979
-0.373967
-0.445664
-0.435576
-0.547434
0.67157
0.669609
-0.205914
0.679375
0.682655
0.523759
0.536071
0.53698
0.538012
0.53699
0.538373
0.40411
-0.112702
-0.144593
-0.0910332
-0.0822486
0.0550893
-0.0450624
-0.047654
-0.0434521
-0.0427685
0.453861
0.53088
0.527804
0.541769
0.552511
1.12499
1.09692
1.12306
1.03666
1.0532
0.990969
0.963646
0.79967
0.821375
0.763976
0.75248
-1.55765
-2.51054
-0.534479
-0.283444
-0.0105088
-0.00709729
-0.00105574
0.648193
0.648981
0.651241
0.654634
1.08008
-0.37999
-0.480965
0.535941
0.534748
0.543079
0.543778
0.539797
0.538888
-0.0455131
-0.0416231
-0.0471192
-0.0510258
-0.050318
0.690703
0.691021
0.537388
0.534394
0.559635
0.580079
0.571087
0.278452
0.608585
0.623394
0.585349
0.748876
0.741402
0.750862
0.86735
0.830925
0.931163
0.954269
0.0166679
8.33786e-05
-0.0148394
-0.0193318
-0.0180518
0.500398
0.49296
0.520223
0.507977
0.510475
0.248441
0.114737
0.417157
0.442187
-0.29191
-0.356657
-0.430788
-0.459948
-0.567565
0.611125
0.665423
0.662617
-0.217895
-0.145549
-0.277743
-0.0720381
-0.134556
0.514043
0.521043
0.516049
0.53158
0.526052
0.528013
0.540336
0.537409
0.538967
0.46647
0.590229
0.330232
0.294999
-0.246193
-0.160869
-0.246902
-0.0699147
-0.0649533
0.0688613
0.094236
0.0421136
0.0305156
-0.058877
-0.0504098
-0.0544445
-0.041839
-0.041632
0.446644
0.435487
0.466535
0.474072
0.518754
0.520155
0.524487
0.522512
0.914465
0.936697
0.944351
0.918241
-3.50172
-6.28631
0.0418542
0.178519
-0.00677344
-0.00908212
0.0021693
-0.00581864
0.000610643
-0.00188898
-0.00531153
-0.00674717
-0.00174538
-0.000232635
0.641814
0.642718
1.00171
1.00783
0.978123
0.930681
0.524138
0.526215
0.531722
0.5276
-0.0412023
-0.0416943
-0.0412828
0.68533
0.689549
0.688003
0.240221
0.150997
0.329228
0.358172
0.635301
0.623376
0.633582
0.644987
0.681428
0.961634
0.979877
0.978134
0.986594
1.0307
1.04717
1.01241
0.479885
0.489847
0.484808
0.523328
0.521102
0.522004
0.517817
0.519143
0.517091
-0.0359815
-0.4165
0.490101
0.507398
0.491816
0.494905
0.691221
0.769702
0.654788
0.659051
0.657867
-0.00351315
-0.0618604
0.250594
0.21688
0.386405
0.422699
0.401726
0.885552
0.846198
0.89624
0.869507
0.831024
0.856402
-0.36809
-1.86962
-0.98764
0.528321
0.342384
0.429399
0.0123613
-0.0046434
-6.19081e-05
1.00084
1.07381
0.646082
0.820539
0.823611
0.719329
0.749174
0.804098
0.730724
0.764656
0.798869
0.779908
0.567373
0.50333
0.519203
0.838896
0.894627
0.121498
0.0609388
0.016934
0.112829
0.169839
0.144057
1.0343
0.94861
1.01896
0.534153
0.53487
-0.00425833
-0.0181403
0.539098
0.539152
-0.0119329
-0.000950297
0.412999
-0.833147
0.102851
0.527666
0.517623
0.534719
-0.0933173
0.355623
-0.0458684
0.0497263
-0.00606871
0.531509
0.464949
0.424181
0.002261
-0.0182419
-0.0456093
-0.215562
0.531824
0.53013
0.534187
0.535134
0.535811
-0.0171191
-0.0127499
-0.00954168
-0.0435671
-0.0386934
-0.0485729
0.498726
0.517642
-0.170364
0.534332
0.536463
0.536283
0.529533
0.535168
0.533416
-0.00883707
-0.014512
-0.017035
0.221384
0.35165
0.653043
0.740943
0.624196
0.400075
0.164856
0.556115
0.619624
0.52511
0.678998
0.66146
0.676409
0.168398
0.0181532
0.176695
0.118049
0.525526
0.524233
0.515878
0.512852
0.529586
0.527698
0.532257
0.529271
0.532223
0.533607
-0.0505616
-0.0763108
-0.0875855
-0.156861
0.310289
0.571999
0.253387
0.283761
0.14276
-0.0400454
-0.0408511
-0.0448589
-0.0505244
0.00293666
-0.0209732
0.0447108
0.0453221
0.0174421
-0.00877268
-0.00483656
-0.0157755
-0.0118526
0.524826
0.52394
0.528846
0.537585
0.474569
0.478342
0.443283
0.463988
0.44928
0.388179
0.423355
0.398598
-0.00398346
0.00516479
-0.00117202
-0.0156172
-0.0123573
-0.0310151
-0.0277101
-0.0239349
-0.0195899
-0.0262293
-0.0407992
-0.0426294
-0.172992
-0.287834
0.988448
0.910519
0.135363
0.520982
0.527431
0.524196
0.529098
0.532226
0.533033
0.530749
0.527302
0.517983
0.519517
0.516342
0.517235
-0.102235
-0.242618
-0.0707942
-0.143857
0.143398
0.627033
0.363568
0.299847
0.29486
0.522625
0.918092
0.702704
0.67744
0.686948
-0.343177
0.0469212
-0.27915
0.336861
0.163645
0.651992
0.701588
0.723925
0.671376
0.624238
-0.103904
0.55475
-0.0698507
-0.0186543
0.182077
0.0604022
0.672379
0.6473
0.65149
0.667722
0.683725
0.653263
0.638861
0.63399
0.663106
0.665097
0.487835
0.252203
0.20368
0.165112
0.64178
0.522935
0.575938
0.49322
0.520722
0.523328
0.521963
0.503545
0.511114
0.506647
0.513177
0.51666
0.525301
0.525756
0.521052
0.523182
-0.0557778
-0.0598322
-0.0304673
-0.138612
-0.13226
-0.194994
-0.0639103
0.0743945
0.0348154
0.236226
0.340995
0.0518779
-0.0591449
-0.0318149
0.010092
0.179378
0.20651
0.0745486
0.162816
0.152557
0.135043
0.237073
0.241103
-0.0246557
-0.0284528
-0.0317727
-0.0338958
0.0207407
0.0910154
0.100814
-0.00258216
-0.00855699
-0.0381282
-0.0378645
-0.0212447
-0.0259775
-0.0220184
0.010011
-0.0509511
-0.0180493
-0.00387036
0.000371677
-0.00190074
-0.00753645
0.517442
0.519952
0.519504
0.525269
0.541481
0.556096
0.518315
0.496731
0.487537
0.490548
0.463458
0.47379
0.46945
0.48319
0.504338
0.513999
0.511313
0.514136
0.496466
0.498189
0.48469
0.488406
0.463155
0.444072
0.432216
-0.0403142
-0.00132897
-0.00952222
-0.0355865
-0.00561829
-0.0178021
-0.00820247
0.010837
-0.00521057
-0.00721795
-0.0178527
-0.0236026
-0.0229519
-0.0747813
0.0115336
-0.184095
-0.22
-0.292314
0.890297
1.01433
0.81022
0.583338
0.602911
0.846091
0.930831
0.543443
0.73544
0.758791
0.586091
0.853336
0.525816
0.525418
0.523019
0.522499
0.523714
-0.00742285
0.0981993
0.0979783
0.160036
0.275287
0.387251
0.317535
0.19307
0.323419
0.325935
0.619498
0.631568
0.587013
0.61107
0.610488
0.425519
0.501201
0.553346
0.512027
0.564447
0.585619
0.540296
0.572881
0.523082
0.478012
0.473884
0.424472
0.444139
0.420177
0.40317
0.515065
0.492749
0.503191
0.4936
0.512556
0.540347
0.535915
0.561369
0.57565
0.497446
0.452652
0.462047
0.49235
0.45327
0.46845
0.485005
0.230425
0.132084
0.215028
-0.0716958
0.00109874
-0.0120758
-0.0604069
-0.0101372
0.274483
-0.417935
-0.394029
-1.02217
0.500967
0.953353
0.612608
0.585554
0.681481
0.663884
0.668819
0.685212
0.688305
0.630353
0.642026
0.645946
0.607425
0.62927
0.648282
0.645209
0.524497
0.385754
0.383506
0.333263
0.203394
0.242457
0.440622
0.363925
0.288682
0.289287
0.457977
0.344777
0.414259
0.44889
0.380371
0.334743
0.53771
0.602682
0.595625
0.569864
0.483439
0.496755
0.520598
0.554766
0.580109
0.610692
0.512612
0.518524
0.519758
0.51724
0.514511
0.517562
0.5178
0.520344
0.521001
0.523987
0.523033
-0.0451089
-0.0331209
-0.046583
-0.0547159
-0.0204455
-0.0232209
0.0200771
0.00540025
-0.012337
-0.00674209
-0.0313305
-0.0356319
-0.0311605
-0.0224968
0.0991083
0.111749
0.0950512
0.0553613
0.249625
0.379334
0.45384
0.329015
0.221828
0.244879
0.265008
-0.0119636
0.0147151
0.0016505
0.0409539
0.0326598
-0.0325113
-0.0366976
-0.0339714
-0.0269142
-0.0172828
-0.0338986
-0.0376205
-0.0286935
-0.033418
-0.0356665
-0.0398998
0.498992
0.492463
0.494186
0.487992
0.486703
0.50112
0.505369
0.507357
0.512876
0.51528
0.505194
0.511032
0.514959
-0.00865423
-0.0315391
-0.0355305
-0.024589
-0.0272611
-0.0252886
-0.0268194
0.122706
0.0525114
0.0571867
0.00905373
-0.122198
-0.064553
0.490338
0.48937
0.479132
0.720094
0.569394
0.489908
0.586993
0.692662
0.27512
0.472098
0.306909
0.887794
0.783932
0.930358
0.541596
0.243625
0.405473
0.450024
0.262051
0.33709
0.325664
0.214443
0.245467
0.282384
0.381565
0.263893
0.24034
-0.0024996
0.187768
0.300164
0.282024
0.406979
0.468
0.26467
0.184285
0.139419
0.604706
0.624036
0.638166
0.610441
0.63141
0.578421
0.569353
0.58558
0.594124
0.589726
-0.750286
-0.456877
-1.40306
-0.723993
-0.269919
0.531222
0.501135
0.767653
0.646895
0.688603
0.673996
0.633185
0.602117
0.623623
0.648295
0.345082
0.456176
0.43137
0.436548
0.338457
0.269375
0.567422
0.56351
0.596381
0.619601
0.591421
0.620884
0.510436
0.510155
0.50962
0.505874
0.504151
0.506511
0.0576339
0.0258995
0.0630065
0.0436494
0.0204251
0.00832664
-0.00516587
-0.0149692
-0.0223381
-0.0223138
-0.0086607
-0.00454332
0.17013
0.108359
0.0282719
0.0580753
-0.00284549
-0.0717279
-0.0902873
0.0140167
0.110404
0.100637
0.404563
0.654437
0.474405
0.641903
0.484153
0.539917
0.467746
0.459201
0.484544
0.378431
0.458886
0.242974
-0.264171
-0.173205
0.790578
0.802998
0.579978
0.402752
0.17138
0.351976
0.543498
0.474952
0.511066
0.580114
0.568268
0.0236663
0.0834171
0.364165
0.591186
0.237897
0.228992
0.222784
0.40479
0.32441
)
;

boundaryField
{
    wall-4
    {
        type            zeroGradient;
    }
    velocity-inlet-5
    {
        type            zeroGradient;
    }
    velocity-inlet-6
    {
        type            zeroGradient;
    }
    pressure-outlet-7
    {
        type            fixedValue;
        value           uniform 0;
    }
    wall-8
    {
        type            zeroGradient;
    }
    frontAndBackPlanes
    {
        type            empty;
    }
}


// ************************************************************************* //
