/*--------------------------------*- C++ -*----------------------------------*\
| =========                 |                                                 |
| \\      /  F ield         | OpenFOAM: The Open Source CFD Toolbox           |
|  \\    /   O peration     | Version:  4.0                                   |
|   \\  /    A nd           | Web:      www.OpenFOAM.org                      |
|    \\/     M anipulation  |                                                 |
\*---------------------------------------------------------------------------*/
FoamFile
{
    version     2.0;
    format      ascii;
    class       volScalarField;
    location    "60";
    object      p;
}
// * * * * * * * * * * * * * * * * * * * * * * * * * * * * * * * * * * * * * //

dimensions      [0 2 -2 0 0 0 0];

internalField   nonuniform List<scalar> 
918
(
0.556837
1.18771
0.00114469
0.556268
-0.0126772
1.1547
-0.508721
0.674437
0.537029
-0.110772
-0.0449601
0.537066
1.01547
0.779864
-1.12448
-0.00994952
0.651815
-0.38243
0.536127
-0.0555212
0.700631
0.543576
0.546601
0.537181
0.600171
0.754531
0.896407
0.0217221
0.00918038
0.0047568
-0.0121581
-0.0395195
-0.033176
1.03835
1.08942
1.11212
0.50486
0.332325
-0.373933
-0.445881
-0.435377
-0.547439
0.670048
0.668111
-0.206405
0.677818
0.681061
0.524079
0.536396
0.537306
0.538336
0.537315
0.538698
0.404212
-0.112579
-0.144336
-0.0915469
-0.0828512
0.0547713
-0.0457821
-0.0480983
-0.0436786
-0.0430572
0.454133
0.531465
0.528369
0.542199
0.552939
1.12726
1.0992
1.12533
1.03898
1.05546
0.993475
0.966043
0.801541
0.823497
0.763679
0.750171
-1.55696
-2.50968
-0.533997
-0.283207
-0.0105402
-0.00724504
-0.00117977
0.648453
0.649303
0.651398
0.654637
1.08028
-0.379316
-0.480467
0.536267
0.535074
0.543405
0.544105
0.540124
0.539214
-0.0461982
-0.0425712
-0.0471818
-0.0516166
-0.0506799
0.689458
0.689826
0.537711
0.534717
0.560087
0.580381
0.571121
0.278568
0.608551
0.623506
0.585544
0.746449
0.740842
0.749615
0.870085
0.833057
0.933462
0.956813
0.0166239
4.60734e-05
-0.0149351
-0.0193715
-0.018237
0.500702
0.493259
0.520543
0.508286
0.510787
0.248846
0.115178
0.417443
0.442446
-0.292014
-0.35698
-0.430282
-0.459631
-0.567376
0.611451
0.664305
0.66165
-0.218083
-0.14584
-0.278158
-0.0724328
-0.135023
0.514357
0.521361
0.516365
0.531902
0.526372
0.528334
0.540663
0.537735
0.539294
0.466549
0.590305
0.330321
0.295035
-0.245353
-0.160093
-0.246044
-0.0706401
-0.0656437
0.068587
0.0939918
0.041763
0.0301461
-0.0595015
-0.0508645
-0.05505
-0.0422258
-0.0424702
0.446912
0.435749
0.466811
0.474353
0.519074
0.52049
0.524934
0.522906
0.916946
0.939379
0.946763
0.92047
-3.50077
-6.28501
0.0419172
0.178686
-0.00681126
-0.00918656
0.00210336
-0.00578357
0.000515118
-0.00189132
-0.00563288
-0.00705684
-0.00199884
-0.000606984
0.642125
0.643069
1.00203
1.0083
0.978272
0.930912
0.524463
0.52654
0.532047
0.527925
-0.0417677
-0.0424319
-0.0416431
0.683892
0.688287
0.686615
0.240296
0.151012
0.329393
0.358368
0.635619
0.623782
0.633927
0.646844
0.681774
0.964271
0.982386
0.980681
0.9889
1.03292
1.04932
1.01466
0.480173
0.490143
0.485099
0.523651
0.521424
0.522327
0.518142
0.519465
0.517419
-0.0354978
-0.415973
0.490275
0.507485
0.492065
0.495032
0.691578
0.770119
0.654699
0.658483
0.657434
-0.003861
-0.0622049
0.250553
0.216782
0.386641
0.422948
0.401969
0.888197
0.848247
0.898434
0.871897
0.833233
0.859702
-0.367589
-1.86866
-0.986886
0.528498
0.342983
0.43027
0.01198
-0.00499097
-0.000425047
1.00123
1.07406
0.646152
0.820751
0.823728
0.718581
0.748377
0.806486
0.72982
0.766203
0.802491
0.782447
0.567643
0.503472
0.519379
0.839323
0.895074
0.121438
0.0607627
0.0167553
0.112617
0.169703
0.143868
1.03445
0.949022
1.01935
0.534476
0.535193
-0.00441145
-0.0181514
0.539425
0.539478
-0.011978
-0.00106036
0.413052
-0.832772
0.102533
0.527991
0.51794
0.535044
-0.0937942
0.355691
-0.0464328
0.0494401
-0.00641322
0.53146
0.465235
0.424425
0.00197144
-0.0183493
-0.046256
-0.214836
0.532146
0.530452
0.534512
0.535459
0.536136
-0.0173557
-0.0129408
-0.00966335
-0.0440484
-0.0389813
-0.0491041
0.499031
0.517978
-0.170093
0.534658
0.536789
0.53661
0.529858
0.535495
0.533743
-0.00903981
-0.0146611
-0.0171332
0.22133
0.35188
0.652735
0.74063
0.624091
0.400172
0.164833
0.556269
0.619424
0.52519
0.678662
0.660343
0.674924
0.168109
0.0178766
0.176423
0.117858
0.52585
0.524558
0.516195
0.513166
0.52991
0.528022
0.532583
0.529597
0.532548
0.533933
-0.050729
-0.0770119
-0.0876934
-0.156818
0.310385
0.572011
0.253586
0.283872
0.14262
-0.0403564
-0.0407474
-0.0451812
-0.051013
0.00257828
-0.021364
0.0443963
0.044965
0.0170721
-0.00906421
-0.00524588
-0.0161868
-0.0121107
0.524935
0.52428
0.528674
0.537316
0.474861
0.478634
0.443549
0.464273
0.449558
0.388431
0.423609
0.398862
-0.00417674
0.00483584
-0.00137542
-0.0158162
-0.0125509
-0.0313296
-0.0280427
-0.0242564
-0.019928
-0.0265266
-0.0412335
-0.043174
-0.172368
-0.287349
0.988698
0.910574
0.136006
0.521301
0.527752
0.524516
0.529423
0.532551
0.533357
0.531072
0.527624
0.518314
0.519843
0.516678
0.51759
-0.101871
-0.242338
-0.0705254
-0.143798
0.14383
0.627311
0.363787
0.299924
0.294975
0.522826
0.917782
0.702388
0.676961
0.68599
-0.342981
0.047043
-0.278945
0.336761
0.163602
0.654154
0.702508
0.72256
0.671324
0.62469
-0.103507
0.555192
-0.0699895
-0.0186389
0.182223
0.060169
0.671423
0.646436
0.650884
0.666528
0.682476
0.652143
0.637957
0.633173
0.661678
0.663585
0.487561
0.252141
0.203576
0.165009
0.641954
0.522488
0.575288
0.493011
0.521048
0.523652
0.522287
0.503853
0.511427
0.506956
0.513495
0.516984
0.525625
0.52608
0.521372
0.523504
-0.0562288
-0.0604078
-0.030166
-0.137955
-0.13179
-0.194345
-0.0632476
0.0749528
0.0353828
0.236782
0.341387
0.0523038
-0.058671
-0.0312341
0.0107411
0.179845
0.207189
0.0744982
0.162715
0.152655
0.134965
0.237143
0.241083
-0.0250375
-0.02868
-0.0320758
-0.034045
0.0204515
0.0908166
0.100593
-0.00308676
-0.00909521
-0.0384818
-0.0386358
-0.0213924
-0.0261862
-0.0221073
0.00935446
-0.0512717
-0.0183397
-0.0041965
-0.00013892
-0.00232052
-0.00797264
0.517799
0.520304
0.519879
0.525705
0.541231
0.555814
0.519065
0.497034
0.487834
0.490848
0.46374
0.474077
0.469735
0.483473
0.504607
0.514221
0.511628
0.514454
0.496738
0.498476
0.484978
0.48869
0.463456
0.444342
0.43248
-0.0406875
-0.00167672
-0.00983627
-0.0359737
-0.00598399
-0.0181686
-0.00850666
0.0104888
-0.00557971
-0.0074925
-0.0180531
-0.0240353
-0.0233279
-0.0742282
0.0121343
-0.183796
-0.219621
-0.292017
0.890605
1.01464
0.810436
0.583561
0.603268
0.846407
0.931129
0.543596
0.735708
0.759006
0.586385
0.853738
0.526137
0.525739
0.52334
0.522819
0.524035
-0.00703204
0.0985841
0.0982926
0.160452
0.275673
0.387561
0.317974
0.193477
0.323801
0.326301
0.619975
0.631968
0.587352
0.611264
0.610825
0.425697
0.501306
0.553434
0.512364
0.564832
0.586022
0.540538
0.57316
0.523349
0.478333
0.474218
0.424732
0.444392
0.42037
0.403376
0.515214
0.493047
0.503447
0.493932
0.512955
0.540924
0.53682
0.561631
0.576256
0.497825
0.452917
0.462321
0.492595
0.453542
0.468762
0.48533
0.230852
0.132581
0.215524
-0.0709589
0.00154285
-0.0116151
-0.0599129
-0.00956144
0.275017
-0.417186
-0.39346
-1.02138
0.501518
0.95364
0.610729
0.583817
0.680454
0.663013
0.668085
0.684492
0.687281
0.630532
0.641772
0.645947
0.606692
0.628412
0.647435
0.644234
0.524811
0.385683
0.383564
0.333128
0.203266
0.242441
0.440263
0.363703
0.288516
0.289057
0.457986
0.344788
0.414356
0.448788
0.380275
0.334674
0.537587
0.602671
0.595787
0.56986
0.483088
0.496305
0.520153
0.554282
0.579458
0.609994
0.512926
0.518843
0.520077
0.517557
0.514829
0.517883
0.518122
0.520668
0.521322
0.524311
0.523357
-0.0456671
-0.0335187
-0.0470131
-0.0552775
-0.0203376
-0.0229709
0.0206852
0.00578604
-0.0127125
-0.00721166
-0.0314862
-0.0358058
-0.031445
-0.0228295
0.099466
0.112165
0.0956075
0.055866
0.250212
0.379833
0.454355
0.329563
0.222509
0.245533
0.265551
-0.0120797
0.0144266
0.00137535
0.0407368
0.0325165
-0.0330904
-0.0370082
-0.0344006
-0.02735
-0.0177705
-0.0344908
-0.0384188
-0.0293991
-0.0342974
-0.0367026
-0.0410185
0.499294
0.49276
0.494478
0.488281
0.486994
0.501425
0.505682
0.50766
0.513186
0.515603
0.505495
0.511306
0.515271
-0.00902665
-0.0319633
-0.0358922
-0.0251589
-0.0277975
-0.0258327
-0.027285
0.123099
0.0531792
0.0577381
0.00960876
-0.121731
-0.0640481
0.490754
0.489686
0.47935
0.720451
0.569746
0.490266
0.587316
0.693005
0.275534
0.472449
0.307303
0.88814
0.784333
0.930749
0.541957
0.244149
0.406184
0.450532
0.262682
0.337816
0.325807
0.214689
0.245666
0.282683
0.381824
0.264324
0.240826
-0.0020774
0.188211
0.30057
0.282399
0.407275
0.468225
0.265138
0.18468
0.139873
0.605026
0.624426
0.638436
0.610757
0.631688
0.579138
0.570176
0.586181
0.59461
0.590149
-0.749412
-0.456042
-1.40223
-0.723556
-0.269429
0.531776
0.50195
0.768239
0.647033
0.688163
0.673504
0.63259
0.601616
0.623403
0.647891
0.344788
0.455791
0.431002
0.436239
0.338238
0.269067
0.56707
0.563256
0.595948
0.619124
0.59117
0.620515
0.510751
0.510471
0.509934
0.506184
0.504458
0.506823
0.0576466
0.0257497
0.0631787
0.043953
0.0207268
0.00843207
-0.0057291
-0.0155713
-0.0229312
-0.0228734
-0.009108
-0.00499245
0.170602
0.108706
0.0287544
0.058399
-0.00241245
-0.0712635
-0.0899131
0.0146039
0.110995
0.101204
0.404959
0.654801
0.474769
0.64228
0.484592
0.540364
0.467934
0.45938
0.484645
0.378761
0.459255
0.243838
-0.263258
-0.17238
0.791246
0.803471
0.580266
0.403276
0.171996
0.352284
0.543522
0.474808
0.510834
0.579917
0.567976
0.0245149
0.0840206
0.365443
0.592485
0.238396
0.229493
0.223236
0.405488
0.324967
)
;

boundaryField
{
    wall-4
    {
        type            zeroGradient;
    }
    velocity-inlet-5
    {
        type            zeroGradient;
    }
    velocity-inlet-6
    {
        type            zeroGradient;
    }
    pressure-outlet-7
    {
        type            fixedValue;
        value           uniform 0;
    }
    wall-8
    {
        type            zeroGradient;
    }
    frontAndBackPlanes
    {
        type            empty;
    }
}


// ************************************************************************* //
