/*--------------------------------*- C++ -*----------------------------------*\
| =========                 |                                                 |
| \\      /  F ield         | OpenFOAM: The Open Source CFD Toolbox           |
|  \\    /   O peration     | Version:  4.0                                   |
|   \\  /    A nd           | Web:      www.OpenFOAM.org                      |
|    \\/     M anipulation  |                                                 |
\*---------------------------------------------------------------------------*/
FoamFile
{
    version     2.0;
    format      ascii;
    class       volScalarField;
    location    "17";
    object      p;
}
// * * * * * * * * * * * * * * * * * * * * * * * * * * * * * * * * * * * * * //

dimensions      [0 2 -2 0 0 0 0];

internalField   nonuniform List<scalar> 
918
(
0.243964
0.922406
0.0102885
0.242842
-0.00110685
0.890095
-0.824597
0.42423
0.223668
-0.347201
0.0149682
0.214086
0.750797
0.517182
-1.44219
0.00862304
0.379585
-0.706301
0.222909
0.00313158
0.501221
0.230174
0.233244
0.223742
0.284967
0.513468
0.630961
0.00601029
-0.00218307
-0.00204451
0.00433305
-0.00642588
0.000792359
0.773434
0.824079
0.846641
0.19353
0.0395999
-0.660616
-0.750189
-0.738802
-0.880362
0.414437
0.418829
-0.474771
0.429494
0.445497
0.211863
0.222952
0.223878
0.225138
0.224048
0.225514
0.173783
-0.396195
-0.436141
-0.285044
-0.22035
0.0509862
0.0120276
0.00237864
0.0225787
0.0195274
0.152496
0.210819
0.208957
0.219601
0.229405
0.861188
0.832189
0.857831
0.77483
0.789658
0.728449
0.700373
0.537682
0.558901
0.504182
0.494144
-1.87131
-2.83839
-0.849793
-0.592046
0.000714014
0.0143107
0.0195039
0.365438
0.374153
0.373481
0.387006
0.801708
-0.696966
-0.827708
0.222673
0.221557
0.229791
0.230115
0.227296
0.225363
0.0113622
0.016426
-0.00848614
0.000634511
-0.000165716
0.481451
0.477063
0.225271
0.221933
0.236265
0.256965
0.247512
-0.00501273
0.295383
0.318042
0.311358
0.492003
0.491267
0.497502
0.605173
0.568486
0.668676
0.691969
0.0113854
0.0031625
0.00677474
0.00506087
0.00704369
0.189208
0.181747
0.205784
0.196932
0.199604
-0.0429505
-0.176971
0.132566
0.15749
-0.561838
-0.644643
-0.747902
-0.769483
-0.90512
0.248569
0.399701
0.404655
-0.478794
-0.408339
-0.554282
-0.322967
-0.400965
0.203504
0.209422
0.204153
0.2188
0.213723
0.215299
0.227168
0.224296
0.225786
0.224569
0.321249
0.0851696
0.0891559
-0.576391
-0.470328
-0.552157
-0.15041
-0.107994
0.0503431
0.0546049
0.039142
0.0428297
-0.0689782
-0.0128316
-0.0427784
0.0224371
0.0204889
0.146018
0.137685
0.161077
0.167512
0.201558
0.20276
0.205907
0.204865
0.650481
0.672933
0.681528
0.655054
-3.86358
-6.93411
-0.25983
-0.115435
0.00305835
0.00270071
0.0016024
0.00400695
0.00276082
0.00127927
0.0245868
0.0220617
0.0206546
0.0240054
0.347306
0.355436
0.750038
0.729706
0.693643
0.667845
0.210293
0.212636
0.218419
0.213924
0.021712
0.0186512
0.0211863
0.443214
0.463242
0.461442
-0.0399037
-0.128317
0.0443894
0.0709557
0.335682
0.320728
0.33931
0.374957
0.412244
0.698382
0.716434
0.716663
0.724842
0.769869
0.782776
0.748568
0.172173
0.178653
0.175477
0.209824
0.207084
0.207808
0.201315
0.204745
0.200749
-0.349841
-0.71136
0.234345
0.241068
0.205846
0.2136
0.327254
0.392117
0.381002
0.390438
0.394667
-0.255796
-0.329357
0.0534814
0.0583322
0.0958953
0.126434
0.110171
0.621567
0.583219
0.633248
0.606174
0.566871
0.592252
-0.752603
-2.00823
-1.25737
0.251618
0.0556819
0.147032
0.0399205
0.0249132
0.0299357
0.674365
0.753547
0.389296
0.591369
0.555882
0.455423
0.486981
0.541966
0.465268
0.49983
0.535849
0.517294
0.213696
0.228501
0.191402
0.461919
0.522416
-0.144546
-0.18979
-0.259357
0.0434563
0.036109
0.0595336
0.706322
0.589551
0.665885
0.221503
0.222101
0.0131645
0.0247097
0.226063
0.226159
0.00655237
0.00612126
0.128166
-1.14811
-0.159382
0.214315
0.205272
0.221514
-0.413258
0.111267
0.000713591
0.0986203
0.0532121
0.213934
0.162677
0.129175
0.00666459
0.01527
0.00985541
-0.54599
0.219085
0.217356
0.221189
0.222252
0.222901
0.00728572
0.010147
0.00692905
0.0078338
0.00821725
0.00492391
0.18797
0.200996
-0.477837
0.221091
0.223409
0.22318
0.216159
0.221662
0.21978
0.0125909
0.00775343
0.00735152
-0.0489944
0.0658419
0.387884
0.506704
0.340732
0.107168
-0.143371
0.280911
0.351151
0.247328
0.415743
0.382503
0.415563
-0.09754
-0.251085
-0.0916816
-0.151009
0.212192
0.21052
0.203622
0.201584
0.216325
0.214651
0.218991
0.216115
0.218906
0.220358
-0.376894
-0.288854
-0.460351
-0.473391
0.0497993
0.314576
-0.00883143
0.0216953
0.0986586
0.00922886
0.0173225
-0.00746181
-0.00975317
0.0289036
0.0496478
0.0738431
0.0485832
0.0527256
0.0278305
0.0214144
0.0369595
0.0270306
0.208714
0.20527
0.212404
0.219232
0.169869
0.172819
0.144219
0.160233
0.149683
0.0939615
0.126754
0.106061
0.00701462
0.00787609
0.00539367
0.0183363
0.0214689
0.00985246
0.00823923
0.0122763
0.00968076
0.00877769
0.0120977
0.01509
-0.508012
-0.608888
0.688601
0.632659
-0.101058
0.208315
0.214776
0.211477
0.215882
0.219258
0.220138
0.217918
0.214454
0.201984
0.204342
0.200733
0.199311
-0.416248
-0.557913
-0.376902
-0.433593
-0.172618
0.327204
0.0759152
0.00744651
0.00781977
0.222286
0.622073
0.407569
0.445351
0.484677
-0.677381
-0.281159
-0.604766
-0.0159171
-0.203648
0.383911
0.439072
0.464203
0.406775
0.354841
-0.554889
0.204143
-0.343337
-0.303032
-0.104114
-0.207734
0.435889
0.367115
0.37646
0.401769
0.42598
0.372647
0.352075
0.351379
0.392627
0.395813
0.187598
-0.0133835
-0.0701382
-0.0996161
0.355961
0.230315
0.284748
0.206584
0.206467
0.209946
0.208408
0.192104
0.199351
0.19469
0.199713
0.203177
0.212491
0.212438
0.207594
0.210177
-0.197531
-0.14554
-0.439764
-0.491382
-0.496623
-0.528124
-0.462641
-0.670038
-0.650203
-0.129305
0.0197157
-0.599631
-0.450379
-0.498975
-0.421388
-0.295323
-0.254836
-0.0386659
0.0910926
-0.0644787
0.0040904
0.0352944
0.0534055
0.00793871
-0.00393165
-0.0398243
-0.00570006
0.0760366
0.0583714
0.0791888
0.0314316
0.0269289
0.0171507
0.0185306
-0.0545793
-0.0674226
-0.0481682
-0.0736938
0.0187517
0.0200487
0.0231441
0.0316677
0.0336464
0.0373165
0.200191
0.201346
0.200345
0.215843
0.226614
0.241165
0.209759
0.188053
0.179915
0.180311
0.158841
0.166721
0.164308
0.174798
0.192029
0.199934
0.197789
0.200312
0.186522
0.187753
0.175975
0.179308
0.161224
0.143712
0.13309
0.0149868
0.0091397
0.0107085
0.0115052
0.00841146
0.00932329
0.0338106
0.0291484
0.0329061
0.0263598
0.0245225
0.0149087
0.0146143
-0.418257
-0.324481
-0.505412
-0.537204
-0.609396
0.591369
0.699705
0.519923
0.303422
0.323732
0.546229
0.679053
0.295318
0.423466
0.520191
0.204517
0.48126
0.212666
0.212734
0.210455
0.209382
0.210511
-0.319124
-0.211441
-0.208387
-0.146459
-0.0284766
0.0937143
-0.0399208
-0.159515
-0.0158058
-0.00955028
0.320664
0.337421
0.280839
0.308172
0.306787
0.136649
0.209234
0.263731
0.22028
0.260092
0.280043
0.249401
0.27321
0.223395
0.181305
0.182952
0.132871
0.141753
0.121403
0.107694
0.202715
0.182503
0.191731
0.184009
0.204444
0.232649
0.225191
0.24938
0.263128
0.192582
0.155681
0.16191
0.190999
0.153893
0.165894
0.178309
-0.0867948
-0.145803
-0.12108
-0.415053
-0.320301
-0.395349
-0.429242
-0.316069
-0.0182928
-0.777333
-0.824935
-1.38625
0.145997
0.675732
0.394013
0.332076
0.423308
0.393931
0.391971
0.439071
0.443675
0.34425
0.363986
0.365072
0.318074
0.339338
0.372607
0.370683
0.198545
0.0728785
0.0581368
0.0331872
-0.0813102
-0.0482018
0.154215
0.0683264
-0.00202367
0.0131838
0.173211
0.0755465
0.135161
0.160354
0.0841458
0.0571008
0.241632
0.314024
0.301629
0.277643
0.200038
0.209796
0.238101
0.268993
0.294621
0.331455
0.201153
0.205118
0.206436
0.204905
0.200423
0.204109
0.204546
0.206567
0.207781
0.210265
0.209053
-0.0310141
-0.0502026
-0.108017
-0.0597823
-0.372762
-0.437365
-0.541175
-0.479338
-0.0926908
-0.133419
-0.281901
-0.178095
-0.123767
-0.0953999
-0.241497
-0.214777
-0.31897
-0.4323
-0.162717
-0.0252212
0.0938135
0.0528545
-0.247417
-0.151253
-0.109732
-0.0181969
0.0427801
0.0392393
0.00459763
-0.00933978
0.02523
0.0171107
0.0137381
0.0167255
0.0179916
0.0159091
0.0177719
0.0176146
0.0191808
0.0179724
0.0185834
0.189572
0.183275
0.182992
0.179105
0.178778
0.188343
0.192779
0.194258
0.198499
0.200657
0.192666
0.197011
0.199627
0.0219787
0.018745
0.0219332
0.0167174
0.0168141
0.0158089
0.0153686
-0.160195
-0.224875
-0.160632
-0.316462
-0.432866
-0.385965
0.151333
0.115897
0.181688
0.364937
0.235826
0.144524
0.213536
0.315002
-0.0467678
0.174847
-0.0139389
0.559287
0.434035
0.582089
0.234962
-0.0891112
0.0576379
0.121313
-0.0908893
-0.0101138
0.00284937
-0.0919864
-0.0622447
-0.0423193
0.0547597
-0.0411096
-0.0614468
-0.324491
-0.148681
0.00581698
-0.00914783
0.114316
0.179533
-0.0904566
-0.139309
-0.172536
0.308164
0.330785
0.350509
0.315888
0.342339
0.267492
0.259386
0.277375
0.287851
0.281511
-1.11409
-0.835959
-1.74284
-1.04375
-0.615296
0.170939
0.132815
0.411729
0.312638
0.39147
0.375099
0.349655
0.313084
0.316296
0.352938
0.0708367
0.17381
0.152801
0.152818
0.0534169
0.00273698
0.28124
0.272442
0.313115
0.335235
0.303421
0.338566
0.196665
0.196483
0.198236
0.19464
0.194668
0.195958
-0.175836
-0.151793
-0.31079
-0.374024
-0.39539
-0.32178
0.0294498
0.0222921
0.0189334
0.0189898
0.0266909
0.0296504
-0.166492
-0.208441
-0.293243
-0.236825
-0.318156
-0.392508
-0.407673
-0.319856
-0.228131
-0.219914
0.115926
0.35773
0.193055
0.351807
0.25866
0.259719
0.190773
0.185775
0.221321
0.0782833
0.139421
-0.0794966
-0.601724
-0.4893
0.387345
0.457803
0.23518
0.0917737
-0.195027
-0.051232
0.23235
0.166394
0.210619
0.277641
0.272045
-0.330217
-0.285081
0.00677613
0.209056
-0.0706456
-0.146977
-0.126151
0.022375
-0.0184067
)
;

boundaryField
{
    wall-4
    {
        type            zeroGradient;
    }
    velocity-inlet-5
    {
        type            zeroGradient;
    }
    velocity-inlet-6
    {
        type            zeroGradient;
    }
    pressure-outlet-7
    {
        type            fixedValue;
        value           uniform 0;
    }
    wall-8
    {
        type            zeroGradient;
    }
    frontAndBackPlanes
    {
        type            empty;
    }
}


// ************************************************************************* //
