/*--------------------------------*- C++ -*----------------------------------*\
| =========                 |                                                 |
| \\      /  F ield         | OpenFOAM: The Open Source CFD Toolbox           |
|  \\    /   O peration     | Version:  4.0                                   |
|   \\  /    A nd           | Web:      www.OpenFOAM.org                      |
|    \\/     M anipulation  |                                                 |
\*---------------------------------------------------------------------------*/
FoamFile
{
    version     2.0;
    format      ascii;
    class       surfaceScalarField;
    location    "17";
    object      phi;
}
// * * * * * * * * * * * * * * * * * * * * * * * * * * * * * * * * * * * * * //

dimensions      [0 3 -1 0 0 0 0];

internalField   nonuniform List<scalar> 
1300
(
3.75095
5.62643
-6.10941
3.75095
-5.93432
5.62643
-4.59408
4.59408
-1.36087
1.36087
1.87671
1.87425
-3.03783
3.03783
-4.4797
4.4797
-2.73016
2.73016
-5.24648
5.24648
-5.06817
5.06817
4.67799
-4.67799
-4.839
4.839
-1.81552
1.81552
-3.80019
3.80019
3.16936
-3.16936
-4.80634
4.80634
-0.478951
0.478951
-0.55276
4.30371
3.19819
3.19819
-2.44908
2.44908
-4.85289
4.85289
6.21796
-6.21796
9.26154
-9.26154
-3.15213
-3.41355
1.32319
-8.16826
-4.61113
-4.61113
-8.44024
8.44024
-2.81381
2.81262
2.9202
-2.9202
-1.82142
1.82142
-4.52811
-0.065965
-4.52811
4.56651
0.0275619
4.56651
-1.45864
0.0977694
-1.45864
4.09554
-4.09554
1.19642
0.164451
1.19642
3.06446
-3.06446
-1.87718
3.75389
1.87377
-1.87157
6.17529
-1.87938
3.75363
-5.27629
5.27629
-3.00718
-0.030647
-3.00718
3.29844
-0.260607
3.29844
-5.30665
5.30665
-4.34023
-0.139472
-4.34023
4.5774
-0.0977065
4.5774
2.95179
-2.95179
-2.76182
0.0316638
-2.76182
2.67806
0.0520938
2.67806
0.353708
5.27272
-5.98014
8.79276
-5.27272
0.0262398
5.20845
0.0380308
5.20845
-5.10601
0.0378434
-5.10601
5.00913
0.0590361
5.00913
4.75656
-0.0785696
4.75656
-4.79996
0.121968
-4.79996
-3.32829
-3.4299
-4.93515
0.096158
-4.93515
-1.8318
0.0162804
-1.8318
1.7506
0.0649256
1.7506
-3.45943
3.45943
-4.24456
0.444371
-4.24456
3.12387
0.0454885
3.12387
1.86915
1.8818
5.6201
-5.6201
2.45074
-4.73794
-0.0683948
-4.73794
-4.89999
-4.36155
4.89999
-0.0936534
-0.795694
0.316744
-0.795694
3.16055
0.037644
3.16055
2.60297
0.0750891
-2.60297
0.153891
3.3835
-3.3835
1.81003
0.639048
1.81003
-5.57152
5.57152
4.94827
0.0608611
-4.94827
0.0953811
6.15721
0.0607565
6.15721
-6.19979
-0.0181738
-6.19979
3.35524
-6.76879
-3.4248
4.72894
0.110054
-4.72894
0.117808
2.88291
0.037292
2.88291
-2.89617
2.89617
-2.97804
0.0578325
-2.97804
-2.22176
0.400344
-2.22176
1.51493
0.306488
1.51493
-4.39682
-0.131285
-4.39682
-4.46851
0.223951
4.46851
0.0980014
0.929364
-0.929364
-1.57973
0.12109
-1.57973
-4.24419
-0.152636
4.24419
-0.148649
-3.94287
-0.152672
-3.94287
-3.02424
0.0462026
3.02424
0.0402232
3.11295
0.0475952
-3.11295
0.0484913
-1.87098
3.75279
-1.87997
3.75374
-5.10652
-0.169774
-5.10652
5.22207
0.0542233
5.22207
3.37069
0.429497
-3.37069
0.363511
3.75135
-0.452916
3.75135
-5.31713
0.0104889
-5.31713
5.23565
0.0709975
5.23565
4.10938
-0.35803
-4.10938
-0.230843
4.63434
-0.0569346
4.63434
3.00462
-0.0528337
3.00462
-2.90781
-0.043981
-2.90781
2.78416
-2.78416
2.77043
0.0137269
-2.77043
0.00861474
-11.1326
11.1144
-0.0351384
-11.0975
5.17331
5.17331
4.16301
0.593548
4.16301
-5.0107
0.210742
-5.0107
3.31822
-6.74302
3.42106
-6.74935
3.42476
-11.593
3.35659
-6.78649
5.07111
-5.07111
5.00711
0.0639939
-5.00711
0.0719592
-1.82689
-0.00491812
-1.82689
-2.84153
-0.617896
-2.84153
4.0834
-0.623973
4.0834
-3.02896
3.02896
-3.07817
0.049208
3.07817
0.0457009
4.68128
-0.0469372
-4.68128
-0.0566642
1.01271
0.183715
-1.01271
0.217012
3.56691
-0.183411
3.56691
-3.1944
-0.189096
-3.1944
-1.81914
-0.00774539
1.81914
-0.0091076
-5.81978
0.248258
-5.81978
-11.1907
0.0932663
-11.1527
-6.10652
-6.10652
2.33372
11.1265
-2.87518
-0.0326288
2.87518
0.00773228
2.96745
0.0615133
-2.96745
0.0712839
-2.83137
0.0472076
2.83137
0.064797
-2.61968
0.397923
-2.61968
-1.09196
1.09196
-1.28584
0.193884
1.28584
0.229084
1.15866
-0.229297
1.15866
1.68169
0.0689036
-1.68169
0.101963
-3.82728
-0.115592
-3.82728
5.20446
0.0176077
5.20446
-3.07716
-0.11724
3.07716
-0.0725394
-0.0332654
11.1477
-5.14005
0.0340376
5.14005
-11.2085
11.2425
-3.25848
0.638795
3.25848
0.904534
5.2959
0.275628
-5.2959
0.285196
5.15498
0.0806631
-5.15498
0.0838768
-2.32654
-0.514992
-2.32654
-4.69376
-0.412756
4.69376
-0.61036
-11.475
-0.201838
11.6768
-11.4159
6.02162
0.135587
-6.02162
11.3781
-0.924845
-0.00451922
0.924845
0.167115
1.45505
-0.29639
1.45505
3.72863
-0.161718
-3.72863
-0.0986468
-5.28397
-0.0331599
5.28397
-0.0795147
-1.85524
-0.471302
1.85524
-0.400187
-4.26653
4.30418
1.90875
-3.3136
-3.45519
-7.67515
1.85138
1.90141
4.30212
-7.16561
-4.42741
-7.0478
7.27282
-6.98762
-9.31461
9.23604
7.41576
-7.56843
-5.78495
5.83065
6.48214
-6.44191
1.87817
1.87572
6.18105
-6.2117
-15.9428
15.773
9.43776
-9.57724
11.9198
-11.9093
-13.0095
13.0902
-5.75575
5.78741
-6.6354
6.59142
-6.7987
6.72616
-3.27327
-3.47608
9.26471
-9.16855
11.6965
-11.7649
-7.99624
8.44061
3.38151
0.92267
3.4291
-1.88198
3.76015
-1.87164
3.78039
3.43395
-6.70722
3.30908
-6.76426
6.07905
5.61749
-5.9854
-1.68976
-5.86063
5.89792
-5.83032
5.89512
8.99154
-9.0575
-1.8858
3.76152
-1.86795
3.76936
-3.42542
-2.35953
3.37993
0.922189
5.66913
3.59559
-5.77918
-1.26862
-7.69396
7.53225
-7.97612
7.78702
-0.453664
5.82298
-5.36931
4.39923
-1.54233
7.3653
5.73049
5.94123
5.8677
-5.59207
1.11993
-6.48924
-6.39386
-2.62957
2.75066
2.65684
-2.49239
5.86407
1.55169
5.71542
-5.48647
-2.08196
-5.60206
3.82036
2.01029
3.86957
4.06915
2.41298
4.11535
3.03004
-3.0366
0.00656711
-3.05693
6.08697
0.724914
-5.41646
-4.49427
4.34184
1.83921
4.08123
-4.45829
-1.75341
-4.09478
-9.87719
-6.06559
-10.2899
9.62297
6.15003
9.67719
-9.94631
9.86679
6.48742
2.95035
6.38971
-5.82642
-3.75082
-6.05726
10.7113
-1.80275
-8.90858
-7.55067
-5.45888
7.47967
4.44008
7.81801
5.27221
7.90188
3.38541
7.32592
-7.82548
2.36661
-3.84539
-1.91036
-3.83677
3.745
2.04241
3.79709
-4.1279
-2.50751
-4.16052
-4.19151
-2.60719
4.24435
2.34708
-4.29735
-3.67877
4.41459
2.31157
3.13576
-7.56317
3.65073
-7.12681
-6.46752
-2.70104
-6.39556
4.20851
2.60509
-6.8136
-2.4987
10.9527
-5.33524
9.26297
-7.22006
-4.54487
-7.27673
-6.7049
-1.29134
-6.48095
-8.70305
8.18806
-9.16522
8.54125
13.051
-6.28723
-6.76381
-3.9697
-2.47222
3.92121
-0.492102
-3.71065
3.71722
0.0495011
3.82989
4.75256
4.26046
-3.90238
-1.92794
-3.8311
3.84253
2.05259
3.88974
6.75273
2.23881
6.78029
-6.42215
-2.63536
-6.55343
9.03279
-8.63244
2.95236
-2.96011
5.21837
2.56865
-5.03496
-2.65901
5.99344
-3.02576
-2.96768
-12.2213
10.6173
1.60401
-4.85596
-0.456734
0.0222163
-5.51586
-3.79875
5.3939
0.547337
11.1646
7.36584
-5.51274
5.761
6.16407
6.22493
-0.168931
5.78486
-5.14606
5.18922
-2.20229
-2.98693
5.27129
-5.42392
-1.28214
-5.17809
3.89595
0.291493
1.87469
-1.55795
-2.08204
-0.547531
-1.98007
1.61268
1.04416
1.7964
0.952384
1.79827
-3.00212
0.596347
2.40577
-2.04974
-1.89604
-3.55541
-0.9368
4.49221
5.51641
2.01584
-5.41776
-0.184302
2.73397
-2.66905
-0.75801
-2.7974
2.07344
-2.83145
-3.52809
-1.79642
5.32451
-3.3783
-0.4528
3.31678
0.552781
-3.81135
-2.04928
3.75352
0.361836
-3.14312
6.24558
-3.10246
-5.07105
2.53039
3.55658
4.54068
-4.78948
2.44059
2.34888
-1.2329
4.36779
-0.286559
3.91487
-5.46149
3.70808
4.99376
3.44685
-5.42326
1.32848
-4.13301
9.90542
-8.50395
-1.40147
5.77792
4.1275
7.57882
5.47222
-5.73884
13.3177
-2.32277
-6.18118
6.45578
-3.00893
5.84909
-8.85802
-11.3213
5.14013
-10.6783
10.2822
0.396037
-2.3629
-7.5834
13.0412
-2.1114
-10.9298
7.56579
-6.05879
-4.59937
10.6582
-7.86154
8.35019
-3.58453
-4.76566
-7.8186
-4.09066
7.85176
2.01503
-9.73408
12.1007
-2.40816
5.74377
0.645945
5.68683
5.09984
-5.80183
0.701988
2.7617
-6.34624
4.7243
-10.5261
-5.01798
9.75793
-4.73995
-7.71902
-6.96666
-0.752357
1.90674
10.1939
-7.17895
5.39634
1.78261
3.34051
0.549223
-3.35424
-0.482532
0.349956
4.46387
-4.81382
4.14705
4.22214
3.39129
1.07258
3.79553
2.1024
-3.80326
-0.357266
-4.07286
1.46568
-1.72579
-3.58366
5.04934
-4.01392
0.43026
-2.67753
-3.52961
6.20714
-4.58789
3.08178
3.16379
5.13437
-4.91087
1.38126
-2.42545
-2.48542
2.63266
-4.35845
1.93218
3.11716
4.24375
0.564978
4.98379
4.77414
-7.58888
0.462069
8.36972
-7.1011
1.83304
6.06885
-7.22938
0.262719
-6.13284
1.07609
-6.41132
-5.73752
5.49851
-6.78985
-3.3595
6.07171
0.708578
-6.16971
-0.31124
-5.84757
-2.85549
-6.31887
-3.17199
-5.99323
-8.91083
-1.57693
-7.3339
6.61113
-6.7891
-3.50084
7.39946
1.14179
-7.30058
7.29606
-7.32561
7.02922
0.0941943
3.62302
4.35466
1.88244
-2.39012
4.27257
-4.94931
7.18812
-8.39704
3.44773
3.9236
-6.55896
-4.47343
5.00027
4.03251
5.30676
9.00862
-10.5786
1.56995
-11.0001
12.1626
-1.16245
-16.745
5.74485
-7.73634
2.69679
0.255575
2.69187
0.66264
2.41139
-3.07403
-2.29746
-2.30657
-2.24096
-3.28392
5.52489
1.0717
-3.32281
2.25111
-3.41665
4.48835
-0.0855387
-3.23727
5.20535
-2.79396
5.46092
-3.50219
1.95874
3.19948
5.47824
-2.27875
4.20508
-1.63643
1.73785
-4.0166
-1.54607
-2.99427
5.03668
-3.21287
3.64313
-0.222859
3.86599
-4.00376
0.978001
-0.612474
3.60966
3.76355
4.11598
-3.0434
2.8683
-4.50473
-1.1483
-3.93976
-0.822591
-0.279841
-3.71053
3.99037
6.11672
-6.39656
-5.27268
9.56941
-4.29673
7.72234
-5.41796
-2.30438
-4.2451
-4.38734
3.84718
1.93768
9.66002
0.216408
-5.63437
-4.92966
-4.02512
3.18488
2.00433
-2.07993
3.68394
2.05772
-0.183026
0.619676
1.17672
1.93036
-1.31068
0.164212
1.76615
-1.39374
2.00347
0.730504
-2.07237
0.0922963
-1.34827
3.42172
1.0575
-2.10166
0.790974
1.13664
-3.33893
4.68418
-2.33673
-2.34746
5.82082
1.16138
-3.49811
4.01671
-3.72521
2.27829
-3.21509
-1.21982
-4.94504
-3.39334
-2.44609
4.6972
-3.0788
5.09464
1.16911
-4.91034
6.07944
-3.48676
1.69034
-2.99942
3.72993
-1.00158
-1.99784
2.71341
2.6111
-2.79725
-0.000154412
-0.0838371
2.31153
-2.39537
-0.519922
-2.56966
-4.55625
4.91809
-2.1293
4.56989
2.14327
-1.91849
6.48838
1.80914
-3.72763
-3.26192
-3.71472
-1.37874
3.16194
-1.59779
-4.45947
-6.36345
4.8175
-0.902623
-6.53853
9.17457
-2.63603
-4.69932
0.991242
4.78668
-8.23653
1.8903
-3.51223
5.66234
5.37578
4.47315
-12.4115
1.4817
-6.26143
2.37024
-8.63167
6.49774
-3.3623
8.50243
-11.0971
7.59631
-9.95536
7.10096
-1.53072
5.67416
-4.97217
3.23441
-7.32508
-5.31004
6.85056
-3.90021
7.4965
-4.34979
11.8463
-6.75796
7.02219
4.8241
-1.46501
-5.81171
-6.85038
5.38536
0.171818
5.85865
4.96179
-2.8594
4.60453
2.26143
-4.68688
-2.09702
-6.55913
1.87225
-3.39533
-1.91336
3.78561
3.22101
3.77023
1.30019
-3.2877
6.88283
-7.63519
-2.14288
-3.59463
6.8035
-1.41814
4.15269
-7.74732
-2.25863
4.99139
-1.00553
-3.98586
1.29584
-4.65534
1.60309
-6.25843
5.18676
-5.498
2.13436
-9.87069
-5.16623
-4.99911
-2.19684
-5.12878
-7.68284
5.48601
-1.93799
5.35807
-8.7393
7.73377
-3.42325
8.90926
-5.29066
-1.02821
5.69084
1.33838
10.2476
0.113776
-4.58721
-1.75548
3.8812
-2.12572
1.4294
-3.59675
0.284454
2.48968
3.33114
-6.38563
-0.173327
-4.76054
-3.90647
7.93898
5.66293
11.7797
1.20109
9.14688
-1.20789
10.348
4.09887
4.32795
-3.01662
4.58657
0.973749
4.42147
-0.824426
2.78316
1.86744
1.88372
0.785324
2.29417
1.46938
3.27217
0.198144
-2.10843
4.6564
-8.68152
-0.977969
-8.08797
1.14807
5.86229
-4.71422
3.10805
-1.10371
0.982327
0.235774
-1.85049
1.61472
-2.75116
-2.03352
-0.267368
-1.5449
2.33587
1.87682
-2.0685
-0.682652
0.296151
-3.68949
2.91894
-2.91909
-0.30799
5.77145
-2.72498
0.329609
-1.03464
-2.24005
-2.78758
2.69529
6.22645
0.261931
3.124
5.18002
3.13074
0.271338
7.38515
-6.98911
-3.14098
-5.50741
0.990336
5.77701
2.25862
7.93533
7.08272
5.66458
-2.08275
-9.71793
6.49906
-1.91249
5.33661
-1.35075
-4.90768
4.85512
2.33301
-5.56369
0.0656921
-4.84199
-6.75448
-0.623633
8.3574
-9.624
8.59579
5.7403
1.5936
-4.34083
-0.658278
4.14695
0.181003
10.529
-1.20339
-6.84657
8.04995
-4.6589
3.68094
0.865741
2.8182
2.48046
1.37674
-5.46982
-10.184
-1.76324
-1.57568
-4.1107
0.381515
-2.25834
6.29822
-2.61729
3.99384
5.43267
6.415
-2.20433
-4.19223
6.50106
-2.50722
3.90777
)
;

boundaryField
{
    wall-4
    {
        type            calculated;
        value           uniform 0;
    }
    velocity-inlet-5
    {
        type            calculated;
        value           uniform -3.75095;
    }
    velocity-inlet-6
    {
        type            calculated;
        value           uniform -5.62643;
    }
    pressure-outlet-7
    {
        type            calculated;
        value           nonuniform List<scalar> 8(6.10941 5.93432 6.56568 6.84507 6.75819 6.78004 6.73928 6.78135);
    }
    wall-8
    {
        type            calculated;
        value           uniform 0;
    }
    frontAndBackPlanes
    {
        type            empty;
        value           nonuniform 0();
    }
}


// ************************************************************************* //
