/*--------------------------------*- C++ -*----------------------------------*\
| =========                 |                                                 |
| \\      /  F ield         | OpenFOAM: The Open Source CFD Toolbox           |
|  \\    /   O peration     | Version:  4.0                                   |
|   \\  /    A nd           | Web:      www.OpenFOAM.org                      |
|    \\/     M anipulation  |                                                 |
\*---------------------------------------------------------------------------*/
FoamFile
{
    version     2.0;
    format      ascii;
    class       volVectorField;
    location    "17";
    object      U;
}
// * * * * * * * * * * * * * * * * * * * * * * * * * * * * * * * * * * * * * //

dimensions      [0 1 -1 0 0 0 0];

internalField   nonuniform List<vector> 
918
(
(0.985083 -0.000718554 0)
(0.00477557 2.96626 0)
(-0.00710619 1.61915 0)
(0.979826 0.00240257 0)
(-0.00356133 1.57995 2.21779e-21)
(-0.00704229 2.9489 -8.19788e-19)
(0.849562 1.22337 2.98222e-19)
(0.462549 0.221459 -3.73896e-21)
(0.999913 -0.000322038 0)
(-0.00648502 0.900103 0)
(-0.00734992 1.2976 0)
(0.797014 -0.00803381 0)
(0.0114793 2.93019 0)
(0.00172625 2.79484 0)
(-0.0194255 3.16561 4.74063e-19)
(-0.00636484 1.49194 -4.29546e-21)
(0.572949 0.105652 2.34594e-19)
(0.171759 1.17668 2.6061e-19)
(0.962246 0.00387289 0)
(-0.00226152 1.40189 0)
(0.155098 0.25882 -2.00369e-19)
(1.00184 -0.00539028 0)
(1.00088 -0.0099214 0)
(0.976149 -0.0063336 0)
(0.710264 -0.0271227 0)
(0.0195257 2.62866 0)
(-0.0151342 2.91035 2.70426e-19)
(-0.0181433 1.64133 0)
(-0.0186467 1.75401 0)
(-0.0173893 1.63772 0)
(-0.00319141 1.8241 0)
(-0.00155978 1.60494 -1.7204e-21)
(-0.00516431 1.49799 0)
(-0.0204652 2.9875 -2.86979e-23)
(-0.0169923 3.00541 6.51239e-19)
(0.00201595 3.00017 0)
(0.862513 -0.0101393 0)
(0.419264 0.957064 -4.25509e-21)
(0.834657 1.23374 -4.07902e-19)
(0.983134 1.07581 3.86988e-19)
(0.701604 1.32919 -6.93836e-20)
(0.694804 1.31169 3.92557e-19)
(0.486948 0.289106 3.64585e-21)
(0.476917 0.199068 0)
(1.17979 0.595364 0)
(0.460489 0.31205 1.72034e-20)
(0.41617 0.212934 -1.78628e-20)
(0.919361 -0.00734908 0)
(1.0004 9.14203e-05 0)
(0.999926 0.000326349 0)
(1.00329 -0.00777856 0)
(1.00095 -0.00105575 0)
(1.00021 1.09532e-05 0)
(0.0539632 1.62342 -1.28934e-19)
(0.0058901 0.957246 0)
(0.0367408 0.869369 0)
(-0.0392675 1.01164 0)
(-0.0368038 0.966124 0)
(-0.000366361 1.57735 0)
(-0.0135696 1.4344 0)
(-0.0201516 1.26515 0)
(-0.00814886 1.48203 0)
(-0.00461793 1.3196 0)
(0.874232 0.000315326 0)
(0.883977 0.00889719 0)
(0.809169 -0.00238085 0)
(0.877685 0.0136124 0)
(0.781827 -0.00791879 0)
(0.0153441 3.00065 2.94104e-19)
(0.0117098 3.00826 0)
(0.00650974 3.0026 0)
(0.0141348 2.99717 3.24613e-24)
(0.00839044 2.95853 -4.44421e-19)
(0.0152013 2.98196 0)
(0.011166 2.90373 0)
(0.0258098 2.93027 5.71473e-25)
(0.00454251 2.82504 0)
(0.0321019 2.91521 0)
(-0.00651843 2.74352 0)
(0.305754 3.56055 0)
(-0.146109 3.63835 0)
(0.136913 3.25762 -4.3759e-19)
(-0.00887941 2.99427 0)
(-0.0135432 1.80202 0)
(-0.00371714 1.63356 4.23613e-21)
(-0.00492382 1.50457 -7.33786e-21)
(0.631591 0.164605 -8.09414e-20)
(0.581496 0.0673045 -7.92023e-20)
(0.601947 0.198282 -2.42737e-19)
(0.54777 0.130779 -1.61788e-19)
(0.219181 0.892245 0)
(0.2572 1.32577 -2.61073e-19)
(0.359873 1.29727 4.31092e-19)
(0.98737 0.00817568 0)
(0.942048 0.00553327 0)
(1.00032 0.000406634 0)
(1.00327 0.00947873 0)
(1.00282 0.00788483 -4.62739e-19)
(0.991841 0.00991655 3.53209e-19)
(-0.0156662 1.53799 0)
(-0.00418046 1.38724 0)
(-0.028097 1.64791 0)
(-0.0217039 1.57541 0)
(-0.00210912 1.43677 0)
(0.232692 0.279576 6.18376e-20)
(0.278893 0.261114 0)
(0.993446 -0.0081492 0)
(0.954688 -0.00617904 0)
(0.850043 0.0200012 0)
(0.819162 0.0318198 0)
(0.761409 -0.0200028 0)
(1.01018 -0.00229026 0)
(0.763149 0.0512189 0)
(0.627181 -0.00838227 3.15383e-19)
(-0.0351847 2.86657 1.37641e-19)
(0.0444456 2.90683 0)
(0.0577184 2.88239 0)
(-0.00601518 2.69509 0)
(-0.013557 2.98526 2.47662e-19)
(-0.0183911 2.89559 0)
(-0.0158026 2.98807 -7.86639e-19)
(-0.0133367 2.92537 2.72756e-19)
(-0.0159715 1.81222 0)
(-0.0123732 1.80784 0)
(-0.0020716 1.63194 -8.44523e-23)
(-0.00206993 1.60222 0)
(-0.00656216 1.49323 0)
(0.928797 -0.00631115 0)
(0.847766 -0.00773055 0)
(0.853209 0.0101271 0)
(0.944972 -0.00814792 0)
(0.88249 -0.00778387 0)
(0.529994 1.15287 1.05529e-21)
(0.582913 1.19623 0)
(0.380775 0.901262 3.16091e-21)
(0.32142 0.76192 0)
(0.946854 1.10601 -1.10464e-19)
(1.06031 0.909395 2.27885e-19)
(0.403522 1.39925 0)
(0.548822 1.38841 0)
(0.541847 1.33364 0)
(0.100697 0.144083 -5.37953e-20)
(0.520376 0.272003 0)
(0.505662 0.17446 4.64232e-20)
(1.03617 0.960106 0)
(1.10802 0.809612 0)
(1.13143 0.754245 -1.9882e-19)
(1.15643 0.647632 0)
(1.20315 0.426369 2.57107e-20)
(0.956624 -0.00847524 0)
(0.962018 -0.0100768 0)
(0.902497 -0.00808573 0)
(0.984411 -0.00910493 0)
(0.974877 -0.00962864 0)
(0.937253 -0.00600421 0)
(1.00013 0.00208394 0)
(1.00088 0.00147471 0)
(0.999853 0.000878358 0)
(0.0211049 1.8573 7.97454e-20)
(0.0467531 1.58181 0)
(0.0141772 1.84159 8.41796e-20)
(-0.00480927 1.58514 -5.99377e-20)
(0.109827 1.1764 -2.15963e-19)
(0.0636412 1.01554 0)
(0.114843 0.99582 0)
(-0.0623392 1.13351 0)
(-0.0478851 1.10011 0)
(0.0128155 1.72918 -3.68046e-22)
(0.00873548 1.59328 0)
(-0.00242841 1.71429 -1.42924e-20)
(-0.0100364 1.56353 2.86619e-20)
(-0.0493395 1.27222 0)
(-0.0315987 1.37488 0)
(-0.0348708 1.20207 0)
(-0.00779293 1.51099 0)
(-0.00392813 1.33495 0)
(0.953136 0.0140796 0)
(0.893778 0.00109129 0)
(0.933645 0.00947629 0)
(0.860634 0.000920234 0)
(0.808962 -0.000231557 0)
(0.902032 0.00464103 0)
(0.895344 0.00356488 0)
(0.806152 -0.00399548 0)
(0.00445701 3.06445 -2.44337e-21)
(0.0166838 3.05781 0)
(0.0154132 2.9691 0)
(0.00887597 2.87634 0)
(0.96337 3.99816 0)
(1.30834 3.25665 4.88879e-19)
(0.0707281 3.08502 0)
(-0.0239264 2.91292 0)
(-0.0157991 1.79616 0)
(-0.0161715 1.79809 0)
(-0.0146797 1.79668 0)
(-0.00800633 1.81196 1.85687e-21)
(-0.0121737 1.80959 0)
(-0.0105316 1.80799 0)
(-0.00188917 1.5096 5.03276e-22)
(0.00125796 1.65854 8.14634e-21)
(-0.000475516 1.64751 7.49707e-21)
(-0.00104797 1.50276 0)
(0.656213 0.121696 1.18659e-19)
(0.592924 0.0354512 -1.15446e-19)
(0.210322 1.49041 0)
(0.260206 0.674366 -9.20873e-20)
(0.144798 1.61865 -3.03099e-19)
(0.138933 1.16501 3.03002e-19)
(0.901843 0.00775895 0)
(0.967852 0.0110204 0)
(0.974682 0.0106075 0)
(0.923857 0.00635012 0)
(-0.0106008 1.52382 0)
(-0.0128946 1.52876 0)
(-0.00421695 1.35609 0)
(0.419154 0.323903 1.57522e-19)
(0.355074 0.304104 -1.92536e-19)
(0.358908 0.237995 0)
(1.12987 0.0819692 -8.39699e-22)
(1.1107 0.0354593 0)
(1.04328 0.035578 0)
(0.952336 0.00492853 0)
(0.673553 0.0927126 0)
(0.704593 0.0660873 -5.07949e-19)
(0.606708 0.0190061 1.93937e-19)
(0.00986748 2.98309 1.73541e-19)
(-0.0315328 2.86932 2.01982e-20)
(0.00199624 3.04958 -5.27838e-21)
(0.0206568 3.04331 1.96711e-19)
(-0.0153919 2.99628 9.06687e-21)
(-0.0127816 2.94944 -3.6794e-23)
(-0.0175492 3.01154 -1.70925e-19)
(0.0141464 3.02326 1.22951e-19)
(0.00662091 3.0366 -1.96353e-19)
(0.927729 0.0084642 0)
(0.92735 0.00213305 0)
(0.8448 -0.00223205 0)
(0.956754 0.0126102 0)
(0.94086 0.0139901 0)
(0.8777 0.00818395 0)
(0.911184 0.00943353 0)
(0.920503 0.0142755 0)
(0.827016 0.0056656 0)
(0.750399 1.42626 1.4232e-19)
(0.796128 1.52067 0)
(0.24965 0.416943 1.32031e-20)
(0.189888 0.605286 1.05148e-19)
(0.289317 0.723526 -6.09136e-20)
(0.247319 0.607889 1.1181e-19)
(0.27522 0.676891 3.02184e-19)
(0.107739 0.175281 8.44044e-20)
(0.576464 0.224931 1.73924e-19)
(0.547008 0.249664 4.30671e-20)
(0.528281 0.159036 8.77287e-20)
(1.19292 0.480654 1.13721e-19)
(1.20476 0.274595 1.2018e-19)
(0.033439 1.76839 2.66177e-20)
(0.0226364 1.56368 0)
(0.995494 0.0262459 0)
(0.964764 0.0160714 0)
(0.916936 -0.00177153 0)
(0.0107756 3.07433 0)
(0.0206788 2.94401 3.35088e-19)
(0.0172671 2.95627 0)
(0.00651141 2.85082 -3.33947e-19)
(0.00557713 3.09158 7.72887e-20)
(0.00612499 3.08223 0)
(0.883132 1.82737 -1.01598e-19)
(1.27174 2.38594 2.2529e-19)
(0.863331 1.9342 -5.83218e-19)
(0.021052 2.98495 -1.28026e-19)
(0.0377125 3.00877 0)
(-0.0315053 2.88309 0)
(-0.00608801 1.67615 -2.18299e-21)
(-0.00237726 1.6701 -1.83472e-20)
(-0.00377093 1.53276 -2.61351e-21)
(0.255095 1.31257 2.83998e-19)
(0.210815 0.442844 -1.93994e-19)
(0.0448422 1.8419 1.97648e-19)
(0.115469 1.7462 -2.56604e-19)
(0.0845552 1.40672 4.38038e-20)
(0.00291117 3.11773 -4.53438e-19)
(0.0173859 3.11757 5.09715e-19)
(-0.00927846 2.98088 2.14533e-19)
(-0.0029907 2.97815 -1.89866e-19)
(-0.0217451 2.88303 -2.18613e-19)
(0.00783047 3.09827 -5.67194e-19)
(0.00115451 3.10638 5.67681e-19)
(0.217489 0.596632 0)
(0.145212 0.588574 -1.97888e-19)
(0.160222 0.236127 8.70517e-20)
(0.315943 0.800542 2.59222e-19)
(0.154856 0.217003 -3.96906e-19)
(1.20569 0.175243 -1.9261e-20)
(1.20503 0.321677 0)
(1.19098 0.126966 4.69301e-20)
(0.0252685 1.74565 -3.32734e-22)
(0.0488441 1.75698 0)
(0.0218629 1.5808 0)
(0.317052 1.18632 -1.01679e-19)
(0.343412 0.99513 -2.12533e-19)
(0.167721 0.302409 3.65266e-19)
(1.00544 -0.011287 0)
(1.00752 -0.00766544 8.50643e-20)
(-0.0168436 1.80089 0)
(-0.0276722 1.80888 0)
(1.002 0.00337488 7.46208e-22)
(1.0037 0.0100172 1.73393e-19)
(-0.00753734 1.81589 -2.48831e-21)
(-0.00604525 1.81505 0)
(0.0399698 3.18527 5.09787e-20)
(0.391452 3.49713 0)
(1.11483 0.636221 2.23982e-20)
(1.01249 0.0135965 -8.47359e-22)
(1.02115 -0.0103959 0)
(1.00166 0.000103821 -2.09234e-23)
(-0.0350001 1.09235 0)
(-0.0136009 2.6377 0)
(-0.0827772 1.66971 0)
(-0.0578205 1.97499 3.15351e-20)
(-0.0497027 1.88558 1.66603e-20)
(1.00379 0.00893242 7.81156e-22)
(1.04434 0.0168394 0)
(1.06942 0.0275182 0)
(-0.0178543 1.8003 0)
(-0.00861206 1.82967 0)
(-0.0248231 1.79011 0)
(0.335751 1.37446 -1.86087e-19)
(1.01123 -0.00996113 0)
(1.00929 -0.015852 0)
(1.00223 0.000413685 1.0726e-19)
(1.00546 -0.00463821 -1.28318e-19)
(1.0012 -0.00106664 0)
(-0.0202083 1.79749 0)
(-0.0187835 1.79662 0)
(-0.0178967 1.79818 0)
(-0.0258897 1.79096 0)
(-0.024637 1.7899 0)
(-0.0274007 1.79213 0)
(1.02825 -0.0151593 0)
(1.02328 0.0207914 -2.62376e-22)
(0.801675 1.25807 2.03375e-19)
(1.00293 0.000110349 -1.07796e-19)
(1.00335 0.00568421 1.29643e-19)
(1.00116 0.00210035 0)
(1.01338 0.010649 1.04799e-19)
(1.00878 0.00876618 -1.29808e-19)
(1.00892 0.0153902 0)
(-0.00903067 1.82952 0)
(-0.00893635 1.8238 3.9006e-21)
(-0.00797405 1.82244 -2.70594e-21)
(1.18703 0.242745 -1.29073e-20)
(1.12348 0.0871639 0)
(0.0576139 3.07705 -2.25183e-19)
(0.0695284 2.84871 -1.78545e-20)
(0.151693 3.19903 3.53819e-19)
(0.146141 3.22842 -1.65982e-21)
(0.138333 3.24557 0)
(0.021372 3.13844 4.99279e-20)
(0.0821867 3.16339 2.17082e-19)
(0.0742738 3.19004 -9.7595e-20)
(0.0263221 3.1286 0)
(0.690871 0.321375 0)
(0.621072 0.383488 0)
(1.07682 0.661949 -8.94496e-20)
(1.10258 0.794295 1.41617e-19)
(1.1419 0.546725 0)
(1.18659 0.49808 0)
(1.01628 0.0135612 -1.96257e-19)
(1.01421 0.0146265 2.44738e-19)
(1.02494 -0.00975542 0)
(1.02085 -0.0160219 0)
(1.00647 0.00290377 0)
(1.01035 0.00392245 0)
(1.00477 0.00200571 0)
(1.00964 0.00541591 0)
(1.00795 0.00618093 0)
(1.0051 0.00467395 0)
(-0.0778949 1.11054 0)
(-0.109726 1.08379 0)
(0.078485 1.09873 0)
(0.128131 1.14278 0)
(0.0198229 2.67403 0)
(0.112512 2.69028 -9.69552e-20)
(-0.108706 2.63742 0)
(-0.126358 2.55895 8.01988e-21)
(-0.0710317 2.20503 -3.95254e-20)
(-0.0680206 1.68076 0)
(-0.0489861 1.70019 0)
(-0.108946 1.62959 0)
(-0.0953464 1.55651 0)
(-0.175185 1.89943 -8.24267e-21)
(-0.0593313 1.90824 1.71677e-20)
(-0.0566367 1.96984 2.09352e-20)
(-0.0473707 1.94423 0)
(-0.0485434 1.88402 -3.75677e-20)
(-0.0323969 1.8676 -1.60685e-20)
(-0.150824 1.87572 6.50921e-21)
(-0.0932282 1.87717 -2.21894e-20)
(-0.0940446 1.92624 -2.66e-20)
(1.01255 0.0181303 1.94163e-19)
(1.0116 0.00108314 -2.39307e-19)
(1.0062 0.0192952 -2.00202e-19)
(0.992886 0.0149264 2.55054e-19)
(1.04475 0.019769 0)
(1.03508 0.0096191 0)
(1.06591 0.0375309 0)
(1.05195 0.0235194 0)
(1.05247 0.0136496 0)
(1.1046 0.0764933 0)
(1.08027 0.0480935 0)
(1.08799 0.0369325 0)
(-0.0111838 1.81775 -5.17302e-22)
(-0.0176925 1.80765 0)
(-0.0132056 1.81057 0)
(-0.0080794 1.83468 5.02716e-21)
(-0.00643739 1.83588 -2.10531e-22)
(-0.0229971 1.80465 4.27591e-21)
(-0.0244834 1.80107 -4.3005e-21)
(-0.0269261 1.79866 0)
(-0.0258389 1.79945 0)
(-0.0255876 1.79939 0)
(-0.0246547 1.78832 0)
(-0.0187153 1.7714 0)
(0.431054 1.42984 3.53147e-19)
(0.41526 1.44381 1.33863e-19)
(0.626521 2.38087 -6.88211e-20)
(0.427247 2.53029 1.82382e-19)
(0.456848 2.05957 -1.82819e-20)
(1.02116 -0.00818161 0)
(1.01523 -0.00983347 0)
(1.01537 -0.0159968 0)
(1.00742 -0.00102893 0)
(1.00451 -0.0014141 0)
(1.00732 -0.00469441 0)
(1.00914 -0.00384732 0)
(1.0141 -0.00428441 0)
(1.02471 0.0200016 1.86435e-19)
(1.01859 0.0237038 -2.38686e-19)
(1.02452 0.0200665 -1.86372e-19)
(1.02034 0.0153561 2.33331e-19)
(0.772855 1.30085 0)
(0.71085 1.35527 2.47839e-19)
(0.865591 1.20505 1.41398e-19)
(0.919183 1.15333 -1.87892e-19)
(1.14248 2.6022 -2.13565e-19)
(0.834633 0.10489 1.23153e-19)
(1.11676 0.0984268 0)
(1.16897 0.17203 1.38037e-20)
(1.17041 0.145832 6.07395e-22)
(0.970656 0.12256 0)
(0.174092 2.96503 3.89833e-20)
(0.130367 2.87253 -3.06048e-19)
(0.0445038 2.35775 2.05543e-19)
(0.111119 0.130738 -8.0408e-20)
(0.338433 3.43555 -1.80857e-19)
(0.199421 3.32867 0)
(0.230775 3.37068 2.35369e-19)
(0.265282 3.04777 -2.78994e-19)
(0.369737 3.20951 0)
(0.00603451 3.12051 1.15488e-20)
(0.0171731 3.12922 -1.50211e-19)
(0.0150018 3.12491 2.20299e-19)
(0.0377538 3.14048 0)
(0.0362637 3.15169 0)
(1.1793 2.64744 0)
(0.508741 0.847369 -9.37304e-20)
(1.04039 0.970447 -7.52908e-20)
(0.951618 1.04997 0)
(0.787743 0.941556 1.72252e-20)
(1.02496 0.868596 1.17834e-20)
(0.386851 0.479569 -2.27804e-19)
(0.71587 0.331181 -9.306e-21)
(0.701299 0.283038 9.26124e-20)
(0.621467 0.43062 7.41798e-21)
(0.56734 0.400921 -3.05537e-19)
(0.698315 0.354389 0)
(0.72688 0.417933 1.52733e-19)
(0.732221 0.407657 0)
(0.662635 0.400929 0)
(0.656352 0.32192 0)
(0.741285 0.588672 5.89326e-20)
(1.17338 0.260777 -8.46009e-22)
(1.18361 0.400275 0)
(1.20145 0.344609 0)
(0.761754 0.217482 1.38911e-19)
(0.796663 0.517992 -7.8081e-20)
(0.721044 0.501706 1.27294e-19)
(0.910447 0.397313 -1.22894e-19)
(1.02244 0.0175393 1.28465e-19)
(1.01918 0.0142005 -1.31487e-19)
(1.0153 0.0194109 0)
(1.02844 -0.0163971 0)
(1.02655 -0.015622 -1.18695e-19)
(1.02084 -0.022547 1.17632e-19)
(1.03295 0.00617707 0)
(1.02758 0.0171627 0)
(1.01109 0.00461617 0)
(1.01507 0.00833516 0)
(1.01556 0.00442898 0)
(1.01336 0.00199856 0)
(-0.188808 1.21519 0)
(-0.182045 1.23594 0)
(0.110245 1.01355 1.99204e-19)
(0.319364 1.3481 1.116e-19)
(0.228512 1.18994 2.51994e-19)
(0.248352 1.26087 -4.01824e-19)
(0.323696 1.16702 0)
(0.164129 1.90574 2.80882e-19)
(0.00158234 1.78724 0)
(0.466718 2.13266 2.66877e-20)
(0.395349 2.43271 9.66718e-20)
(0.446216 1.50739 -2.45389e-19)
(0.428655 1.28536 1.00532e-19)
(0.386852 1.16006 -8.04737e-20)
(0.482024 1.31125 1.80411e-19)
(0.448036 1.74804 0)
(0.479848 1.71564 -1.31376e-19)
(-0.333508 2.18212 2.01596e-20)
(-0.130732 2.32729 0)
(-0.290416 2.38269 -6.86839e-20)
(-0.311228 2.29689 0)
(-0.137494 2.52306 -9.27176e-21)
(-0.0974049 2.38431 0)
(-0.171678 1.76789 -3.03183e-22)
(-0.234141 1.83624 0)
(-0.217397 1.66554 0)
(-0.18079 1.69063 3.41285e-22)
(-0.07646 2.02945 -1.37964e-20)
(-0.0676332 2.17519 4.22811e-20)
(-0.043515 2.07432 2.75367e-22)
(-0.0901636 1.83521 9.51986e-21)
(-0.110098 1.82813 3.52353e-21)
(-0.0393292 1.72545 0)
(-0.0239717 1.73402 0)
(-0.344107 1.92598 -2.53681e-20)
(-0.298565 1.70726 -3.43251e-20)
(-0.276131 1.83462 4.03539e-20)
(-0.403807 1.88398 0)
(-0.017844 1.82544 -1.89579e-20)
(-0.0163811 1.83459 8.65778e-21)
(-0.0184643 1.83773 -2.60024e-21)
(-0.0711999 1.82494 -1.14946e-20)
(-0.0433156 1.8588 -4.56062e-21)
(-0.054122 1.86507 2.52844e-20)
(1.02341 0.0126328 -1.25255e-19)
(1.02099 0.00813838 1.27304e-19)
(1.01634 0.00226721 0)
(0.999159 0.0468183 1.82854e-19)
(0.992773 0.0337829 -2.12073e-19)
(0.966485 0.0222539 2.44994e-19)
(0.996847 0.07914 -2.39447e-20)
(1.02877 -0.00960701 0)
(1.03467 0.00958787 1.08775e-19)
(1.02737 -0.00663593 -1.06966e-19)
(1.04606 0.0398581 -5.99101e-21)
(1.04777 0.0282116 5.30235e-20)
(1.04178 0.046678 0)
(1.03393 0.0411489 -1.96064e-20)
(1.02895 0.0266986 0)
(1.0254 0.019927 0)
(1.03716 0.00895475 0)
(1.03359 0.0106911 0)
(1.03693 0.0253722 4.07556e-20)
(1.0395 0.0183467 -9.14654e-20)
(1.03716 0.0297833 -4.14505e-20)
(1.03696 0.0293151 -4.74667e-20)
(1.03935 0.0560009 8.75087e-20)
(1.06647 0.0512419 0)
(1.07055 0.0952825 0)
(-0.0181724 1.82564 -6.99933e-21)
(-0.0191074 1.81274 -5.70271e-22)
(-0.0199128 1.81377 0)
(-0.0127123 1.82575 7.25863e-21)
(-0.0122924 1.81988 1.05155e-21)
(-0.0120658 1.82437 -1.04936e-21)
(-0.0276592 1.86276 1.35209e-20)
(-0.0194651 1.84592 -9.82337e-22)
(-0.0293904 1.85022 4.84294e-21)
(-0.00813246 1.84485 -7.06309e-21)
(-0.0129811 1.84761 8.64324e-21)
(-0.0266095 1.80695 1.01903e-22)
(-0.0251021 1.80887 8.00523e-21)
(0.467143 1.38458 -1.7267e-19)
(0.466674 1.40428 -1.57797e-19)
(0.661 1.39243 -2.39277e-19)
(0.52303 1.45351 -1.30319e-19)
(0.57047 1.43114 0)
(0.592728 2.36435 5.8566e-20)
(0.675203 2.3399 9.91575e-20)
(0.419179 2.51282 4.22553e-20)
(0.459199 2.58088 -7.32911e-20)
(0.569664 2.52622 1.2685e-19)
(0.521734 2.4231 0)
(0.531423 2.4251 -1.60929e-19)
(0.211689 2.63737 2.78445e-19)
(0.357168 2.58775 -2.11498e-20)
(0.243654 2.66318 -4.19689e-19)
(0.895148 2.36546 9.03898e-20)
(0.807401 2.3373 0)
(1.01111 -0.00034036 4.24101e-21)
(1.01509 -0.00516334 -3.50599e-21)
(1.01681 -0.00347971 -6.26644e-20)
(1.01488 -0.000492552 6.33014e-20)
(1.01245 0.000600751 0)
(0.636812 1.24631 0)
(0.635607 1.14726 0)
(0.726068 1.08589 0)
(0.62977 1.10854 0)
(1.17108 2.61618 2.62105e-20)
(1.05362 2.34921 0)
(0.868325 2.25213 -6.50545e-22)
(0.810677 2.49968 0)
(0.908824 2.58427 7.16628e-21)
(0.952704 2.53605 -4.66431e-21)
(0.841384 0.14212 0)
(0.811031 0.138747 3.49084e-20)
(0.921327 0.127186 1.82224e-19)
(0.862091 0.119311 -7.2785e-20)
(0.857762 0.0706843 -2.19119e-19)
(1.02089 0.206399 -1.17596e-19)
(0.955327 0.283874 -5.98057e-21)
(0.8852 0.273048 1.6607e-19)
(0.961413 0.202143 1.25823e-19)
(0.932753 0.160415 -2.29742e-19)
(0.90916 0.17324 2.94704e-20)
(0.926357 0.227933 -5.9031e-20)
(0.908813 0.192531 0)
(0.964717 0.158407 1.1024e-19)
(1.00101 0.15871 0)
(0.999483 0.191399 0)
(1.05492 0.104552 3.82651e-20)
(1.02786 0.148957 -5.74501e-21)
(1.01782 0.207636 -1.94552e-20)
(1.0544 0.182819 0)
(1.01572 0.0236295 9.67498e-20)
(1.03029 0.0428356 1.14403e-19)
(1.02743 0.0302082 -9.50446e-20)
(1.02457 0.0482251 -7.70723e-20)
(1.00782 0.0515182 -1.28968e-19)
(0.972656 0.121915 0)
(0.984538 0.0760393 0)
(0.970933 0.0465205 -8.81184e-20)
(0.934161 0.0558913 3.65908e-20)
(1.00563 0.078976 1.09683e-19)
(1.02633 0.105048 -1.14368e-19)
(1.03279 0.122895 1.01806e-19)
(0.99262 0.125395 0)
(1.03534 0.0943264 0)
(1.02409 0.0774873 -4.75816e-20)
(1.02068 0.0804098 -8.78496e-20)
(0.579098 1.07226 -3.06228e-20)
(0.634577 1.40523 6.68781e-20)
(1.15372 2.75642 3.31523e-20)
(1.22748 3.0873 -3.24905e-20)
(1.23759 2.71702 2.4543e-19)
(1.26883 2.71622 -1.5396e-19)
(1.15272 2.34911 8.68431e-21)
(1.21494 2.98023 7.45127e-20)
(1.23595 2.94913 -7.57673e-20)
(1.23357 3.24407 -1.37978e-19)
(1.35968 2.97997 1.61032e-19)
(1.30029 2.90219 0)
(0.503116 0.85064 -5.63709e-21)
(0.145519 1.28802 1.63756e-19)
(0.539358 0.546114 1.52398e-19)
(0.351833 0.310431 1.61576e-19)
(0.565683 0.447805 1.71816e-19)
(0.565663 0.499809 -2.68922e-19)
(0.550418 0.534601 2.2004e-19)
(0.5152 0.480838 -9.00894e-20)
(0.471121 0.411096 2.06783e-19)
(0.766776 0.26554 -7.78181e-20)
(0.735688 0.294542 0)
(0.728397 0.244246 4.3653e-21)
(0.712869 0.514133 7.87243e-20)
(0.698865 0.477643 -2.90989e-19)
(0.614145 0.510046 7.05569e-21)
(0.641188 0.479218 0)
(0.619637 0.737955 6.54815e-20)
(0.784275 0.762639 2.39939e-20)
(0.707908 0.850402 -3.1598e-20)
(0.823576 0.788062 -9.00981e-21)
(0.859354 0.821925 4.45502e-21)
(0.865065 0.8237 -4.57699e-21)
(0.784402 0.616594 -1.00321e-19)
(0.863151 0.687703 8.39915e-21)
(0.925505 0.696502 0)
(0.906561 0.666749 -1.18183e-20)
(0.984829 0.303867 2.80759e-20)
(1.0597 0.271261 1.2536e-20)
(1.00684 0.247912 4.74283e-20)
(0.968749 0.345474 -6.38987e-20)
(1.00261 0.403447 0)
(1.04782 0.39412 0)
(0.884882 0.330491 1.68684e-21)
(0.825293 0.276778 0)
(0.839206 0.279255 8.34185e-20)
(0.886953 0.279687 -4.35401e-21)
(0.897638 0.39565 3.37162e-19)
(0.849332 0.454311 8.67578e-20)
(0.857548 0.41993 -1.0769e-19)
(0.803364 0.410824 1.15405e-19)
(0.791264 0.410184 7.7559e-20)
(0.774887 0.402768 -7.5506e-20)
(1.02646 -0.0104779 1.0181e-19)
(1.02022 -0.0049483 0)
(1.01795 -0.00265905 6.76839e-20)
(1.02336 -0.00679567 -1.52155e-19)
(1.02504 0.000796264 7.36511e-20)
(1.02181 0.0119847 -1.55688e-19)
(1.0235 0.0133923 0)
(1.02334 0.0123182 -3.23119e-20)
(1.01624 0.0060915 8.13517e-20)
(1.01626 0.00907717 -4.17303e-20)
(1.01848 0.00921388 3.0704e-20)
(-0.160853 1.51769 0)
(-0.260925 1.62734 0)
(-0.210608 1.36917 0)
(-0.137534 1.40332 0)
(-0.338394 1.50519 -3.15464e-19)
(-0.208741 1.3197 9.83548e-20)
(-0.163924 1.78378 1.03425e-19)
(-0.18194 1.53759 -1.0679e-19)
(-0.355411 1.70316 6.57666e-20)
(-0.366171 1.68702 -5.03324e-20)
(-0.329975 1.47473 4.69822e-20)
(-0.321031 1.48218 1.25827e-19)
(-0.296254 1.51025 1.19301e-20)
(-0.311467 1.59062 7.01759e-21)
(-0.27732 2.43365 7.54689e-20)
(-0.193096 2.53655 0)
(-0.115539 2.37161 -2.92124e-20)
(-0.232411 1.95897 -7.54975e-20)
(0.416022 2.18456 3.09391e-20)
(0.261119 2.59271 0)
(0.284895 2.51911 -4.80624e-20)
(0.413985 2.47376 3.29491e-20)
(0.241931 2.25234 8.83898e-20)
(0.0944855 2.34503 -3.30815e-20)
(0.0277047 2.59528 0)
(-0.292835 2.00183 1.56885e-20)
(-0.180242 1.98758 -3.80532e-20)
(-0.213553 1.94374 0)
(-0.212596 2.12221 -8.40596e-22)
(-0.312086 2.1295 -4.38925e-21)
(-0.106475 1.75121 1.57374e-21)
(-0.0719595 1.75861 -1.95902e-20)
(-0.0668541 1.77959 5.76153e-21)
(-0.106684 1.79013 6.19524e-21)
(-0.146823 1.77876 0)
(-0.0530242 1.78026 0)
(-0.0217526 1.77427 8.18374e-21)
(-0.0314246 1.79267 -2.52667e-21)
(-0.037973 1.78538 0)
(-0.0240106 1.75667 6.08135e-21)
(-0.0153555 1.75398 -1.21968e-20)
(1.03537 0.01026 0)
(1.04131 0.0147689 -1.01099e-20)
(1.04286 0.0191671 -7.27001e-20)
(1.04071 0.0201828 0)
(1.0408 0.0219026 0)
(1.0447 0.00849967 -2.36417e-21)
(1.04148 0.00675362 1.21681e-19)
(1.04118 0.0110733 1.47086e-19)
(1.03535 0.0120475 0)
(1.03125 0.00855994 0)
(1.03847 0.016808 7.40389e-20)
(1.02967 0.0101556 0)
(1.03091 0.00905934 0)
(-0.0296072 1.82979 0)
(-0.0267824 1.80901 9.851e-22)
(-0.0248842 1.82459 4.53113e-21)
(-0.0281649 1.79586 0)
(-0.0296276 1.80986 4.85832e-21)
(-0.0276411 1.8056 -2.66339e-21)
(-0.0293196 1.8009 0)
(0.350269 1.72209 0)
(0.437666 1.36386 2.38523e-19)
(0.410177 1.39189 0)
(0.444081 1.35044 -3.26593e-19)
(0.490794 1.40033 0)
(0.47787 1.40026 1.55786e-19)
(1.01486 2.70947 -1.7603e-21)
(0.928261 2.41153 -1.10792e-19)
(0.845761 2.13373 1.69685e-19)
(0.827933 2.33527 5.61711e-20)
(0.827903 2.53379 0)
(0.887212 2.52685 0)
(0.858407 2.36452 0)
(0.890921 2.29896 -1.9283e-19)
(0.678251 2.50128 -2.38733e-20)
(0.78814 2.51397 -9.16731e-21)
(0.790496 2.47789 7.30428e-21)
(0.670382 2.3315 0)
(0.773847 2.33093 0)
(0.734203 2.3343 -9.72757e-20)
(0.738409 2.49992 0)
(0.583528 1.08646 0)
(0.455989 0.922185 -7.68354e-21)
(0.522941 0.940692 -1.34084e-21)
(0.506866 1.04649 0)
(0.500078 1.00603 1.30102e-20)
(0.728255 0.879155 3.78672e-21)
(0.758736 1.00371 0)
(0.726264 0.950703 -1.96164e-20)
(0.579991 1.03259 0)
(0.602523 0.93345 0)
(1.15638 2.76499 1.22789e-20)
(1.13427 2.83326 4.27728e-20)
(0.949978 2.35954 -1.00587e-19)
(0.913337 2.33162 1.0005e-20)
(1.11787 2.73474 0)
(1.06563 2.70635 -1.22059e-20)
(1.06797 2.47587 -4.28067e-20)
(0.957238 2.20947 -1.33405e-20)
(0.494762 1.37069 0)
(0.493455 1.04897 2.68229e-20)
(0.560556 1.12014 0)
(0.854506 0.210756 0)
(0.817397 0.15846 0)
(0.774992 0.16882 0)
(0.837603 0.228918 -1.31959e-19)
(0.782227 0.232331 8.22081e-20)
(0.937729 0.0521846 -7.59096e-20)
(0.942568 0.0979317 0)
(0.923938 0.103993 3.39887e-20)
(0.890085 0.0826033 1.39436e-19)
(0.88709 0.0515492 -8.61153e-20)
(1.16906 3.38015 -4.16142e-19)
(1.21917 3.29748 0)
(1.13787 3.39831 -7.95121e-19)
(0.638349 3.55827 6.99585e-19)
(0.848695 3.12284 1.49328e-19)
(0.481403 0.876512 9.08978e-20)
(0.394928 0.864911 0)
(0.338326 0.576407 -3.35515e-20)
(0.422824 0.688611 1.53365e-19)
(0.53495 0.550414 -4.64695e-20)
(0.51718 0.56948 5.19711e-20)
(0.626595 0.547967 1.12525e-19)
(0.655965 0.552025 0)
(0.61281 0.626137 0)
(0.573674 0.564589 0)
(0.913004 0.577019 -1.62506e-20)
(0.848905 0.505359 -8.33787e-20)
(0.867481 0.543511 4.55702e-20)
(0.913631 0.482458 -6.16156e-20)
(1.01651 0.464415 0)
(1.01266 0.534794 -5.49303e-21)
(0.832192 0.368739 -1.69929e-19)
(0.835617 0.354358 -1.93105e-19)
(0.800135 0.367682 1.32847e-19)
(0.782593 0.350156 -1.47903e-19)
(0.82651 0.300149 -1.11113e-19)
(0.783046 0.30423 1.36821e-19)
(1.03136 -0.000156436 -7.71583e-20)
(1.03373 -0.00100868 1.59524e-19)
(1.02874 -0.0111885 9.68266e-20)
(1.03417 -0.0119848 -1.16957e-19)
(1.03875 0.00188927 0)
(1.03752 0.00425349 -1.91784e-19)
(-0.442382 1.97416 2.32207e-21)
(-0.401887 1.86436 0)
(-0.41563 1.96427 -2.79429e-19)
(-0.347664 1.94815 2.68796e-19)
(-0.311184 1.77236 -1.93179e-19)
(-0.405565 1.80676 0)
(-0.0633296 1.82491 0)
(-0.0498326 1.79727 -2.74482e-21)
(-0.0384207 1.79873 2.47513e-21)
(-0.0347076 1.80982 1.18383e-21)
(-0.0425628 1.83148 -5.29955e-21)
(-0.0484654 1.83079 3.70881e-21)
(0.483508 1.3991 1.52021e-19)
(0.450975 1.41447 -1.60671e-19)
(0.449268 1.31888 1.71603e-19)
(0.397172 1.34225 -8.97287e-21)
(0.627432 1.28062 0)
(0.546005 1.38316 2.10963e-19)
(0.57573 1.35191 -2.04652e-19)
(0.479714 1.2858 -1.65006e-19)
(0.504932 1.23691 0)
(0.556772 1.16967 0)
(0.63311 2.45527 3.56216e-20)
(0.666534 2.46547 2.56285e-19)
(0.698995 2.47756 -1.74111e-19)
(0.631307 2.46183 -5.19711e-20)
(0.579536 2.57406 5.89916e-20)
(0.585943 2.55185 -1.55523e-19)
(0.944879 2.35818 -9.21808e-20)
(0.989587 2.38079 0)
(0.873945 2.12044 -1.25234e-19)
(1.03469 2.6926 0)
(1.03176 2.68226 0)
(0.606339 2.28165 7.74048e-20)
(1.02284 3.17273 1.88307e-19)
(0.891082 3.03843 -1.43094e-19)
(0.303186 0.977435 0)
(0.351595 0.831204 -6.23184e-20)
(0.466528 0.782248 -2.64054e-20)
(0.421289 2.02774 0)
(0.48552 2.80111 -1.05738e-19)
(0.444037 2.58816 0)
(0.630699 0.678072 -1.3515e-19)
(0.70544 0.669745 1.7178e-19)
(0.736916 0.607639 -1.66794e-19)
(0.628286 0.642675 -1.98833e-20)
(0.678459 0.602282 -8.10651e-20)
(1.00562 2.78645 -1.42205e-19)
(1.03617 2.85026 1.25769e-19)
(0.662412 2.19029 4.44812e-20)
(0.578543 1.74537 -4.08804e-20)
(0.702268 1.92959 2.85488e-20)
(0.982734 2.49491 -2.89744e-20)
(0.98502 2.48004 -7.07488e-20)
(0.664226 1.91127 -2.86676e-21)
(0.4431 1.35707 -2.02614e-20)
)
;

boundaryField
{
    wall-4
    {
        type            noSlip;
    }
    velocity-inlet-5
    {
        type            fixedValue;
        value           uniform (1 0 0);
    }
    velocity-inlet-6
    {
        type            fixedValue;
        value           uniform (0 3 0);
    }
    pressure-outlet-7
    {
        type            zeroGradient;
    }
    wall-8
    {
        type            noSlip;
    }
    frontAndBackPlanes
    {
        type            empty;
    }
}


// ************************************************************************* //
