/*--------------------------------*- C++ -*----------------------------------*\
| =========                 |                                                 |
| \\      /  F ield         | OpenFOAM: The Open Source CFD Toolbox           |
|  \\    /   O peration     | Version:  4.0                                   |
|   \\  /    A nd           | Web:      www.OpenFOAM.org                      |
|    \\/     M anipulation  |                                                 |
\*---------------------------------------------------------------------------*/
FoamFile
{
    version     2.0;
    format      ascii;
    class       surfaceScalarField;
    location    "27";
    object      phi;
}
// * * * * * * * * * * * * * * * * * * * * * * * * * * * * * * * * * * * * * //

dimensions      [0 3 -1 0 0 0 0];

internalField   nonuniform List<scalar> 
1300
(
3.75095
5.62643
-5.53576
3.75095
-5.51447
5.62643
-4.47414
4.47414
-1.11714
1.11714
1.87647
1.87449
-2.95315
2.95315
-2.23155
2.23155
-2.56307
2.56307
-5.24649
5.24649
-5.06876
5.06876
4.67396
-4.67396
-4.05114
4.05114
-1.52682
1.52682
-3.91831
3.91831
3.16997
-3.16997
-3.31857
3.31857
-0.317366
0.317366
-0.553557
4.30451
3.1974
3.1974
-2.17682
2.17682
-4.8612
4.8612
6.2183
-6.2183
8.16598
-8.16598
-2.63022
-3.40709
1.55103
-9.15837
-3.96344
-3.96344
-8.4404
8.4404
-2.81397
2.81246
2.94234
-2.94234
-1.78516
1.78516
-4.40978
-0.0643575
-4.40978
4.47915
-0.00500994
4.47915
-1.24917
0.13203
-1.24917
3.97544
-3.97544
0.947546
0.169598
0.947546
3.06452
-3.06452
-1.87716
3.75363
1.87379
-1.87182
6.17633
-1.87913
3.75362
-5.90346
5.90346
-3.21441
0.261254
-3.21441
2.75141
0.201742
2.75141
-6.65555
6.65555
-2.40255
0.171007
-2.40255
2.23405
-0.00250358
2.23405
2.85483
-2.85483
-2.6598
0.0967276
-2.6598
2.46844
0.0946337
2.46844
0.353554
5.27288
-5.97998
8.79244
-5.27288
0.0263897
5.20849
0.037992
5.20849
-5.10606
0.0373025
-5.10606
5.01056
0.0581972
5.01056
4.76746
-0.0934939
4.76746
-4.78718
0.113214
-4.78718
-2.97946
-4.24714
-4.2865
0.235355
-4.2865
-1.53015
0.00333337
-1.53015
1.47873
0.0480807
1.47873
-3.53202
3.53202
-4.28182
0.363501
-4.28182
3.12467
0.0453034
3.12467
1.86853
1.88242
5.61949
-5.61949
2.44951
-2.87333
-0.445238
-2.87333
-3.7687
-4.39728
3.7687
-0.450124
-0.586272
0.268906
-0.586272
3.15916
0.0382373
3.15916
2.35757
0.110867
-2.35757
0.18075
3.23886
-3.23886
1.55836
0.618458
1.55836
-5.56736
5.56736
4.95249
0.0580696
-4.95249
0.091292
6.15702
0.0612781
6.15702
-6.19958
-0.0187209
-6.19958
2.62891
-6.036
-3.83534
3.95725
0.0938938
-3.95725
-0.00619143
2.91208
0.0302593
2.91208
-2.92273
2.92273
-2.9825
0.0401586
-2.9825
-2.19085
0.405687
-2.19085
1.47866
0.306499
1.47866
-4.28248
-0.127305
-4.28248
-4.41582
0.134007
4.41582
0.0633283
1.02873
-1.02873
-1.37968
0.13051
-1.37968
-4.118
-0.164483
4.118
-0.142558
-3.86139
-0.114049
-3.86139
-3.02324
0.0407393
3.02324
0.0412822
3.11236
0.0468032
-3.11236
0.0478366
-1.87083
3.75325
-1.88012
3.75392
-5.51426
-0.389199
-5.51426
6.21275
-0.30929
6.21275
3.56308
0.355231
-3.56308
0.348676
2.58157
0.169839
2.58157
-6.66911
0.0135643
-6.66911
6.47797
0.177576
6.47797
2.48088
0.10069
-2.48088
0.0783287
2.34397
-0.109921
2.34397
2.86037
-0.00554437
2.86037
-2.86133
0.0065006
-2.86133
2.80473
-2.80473
2.7368
0.0679263
-2.7368
0.0769982
-11.1329
11.1141
-0.0352207
-11.0976
5.17327
5.17327
4.19984
0.567622
4.19984
-5.00022
0.21304
-5.00022
2.64371
-6.47905
4.13203
-7.11149
4.0506
-13.209
3.30127
-7.54841
5.52402
-5.52402
4.83172
0.692297
-4.83172
0.545224
-1.55433
0.0241802
-1.55433
-2.9216
-0.610427
-2.9216
4.19351
-0.661487
4.19351
-3.02948
3.02948
-3.07838
0.0489067
3.07838
0.0462858
2.57627
-0.2323
-2.57627
-0.297064
0.765812
0.181734
-0.765812
0.179541
3.45939
-0.220536
3.45939
-3.03477
-0.204084
-3.03477
-1.55963
0.00529846
1.55963
-0.00126234
-5.81648
0.249114
-5.81648
-11.1906
0.0929912
-11.1526
-6.10659
-6.10659
2.33381
11.1263
-2.88413
0.0227989
2.88413
0.0279532
2.97698
0.0525
-2.97698
0.0542437
-2.8655
0.060772
2.8655
0.0572337
-2.57075
0.379907
-2.57075
-1.05897
1.05897
-1.24499
0.186023
1.24499
0.233667
1.26467
-0.235944
1.26467
1.43708
0.0416589
-1.43708
0.0573927
-3.75406
-0.10733
-3.75406
6.4234
-0.210657
6.4234
-2.91587
-0.118908
2.91587
-0.0554937
-0.0332816
11.1474
-5.13999
0.0339289
5.13999
-11.2087
11.2426
-3.24594
0.675182
3.24594
0.9539
5.28965
0.277711
-5.28965
0.289435
6.13495
0.343023
-6.13495
0.61093
-2.42909
-0.492502
-2.42909
-4.92751
-0.586749
4.92751
-0.734
-11.4758
-0.202921
11.6787
-11.4176
6.0194
0.137624
-6.0194
11.3803
-0.970898
-0.0578281
0.970898
0.0880729
1.57618
-0.311511
1.57618
3.6504
-0.191002
-3.6504
-0.103662
-6.55787
-0.11124
6.55787
-0.134466
-1.98617
-0.442924
1.98617
-0.409988
-4.26683
4.30507
1.9095
-2.12756
-3.90844
-6.52484
1.85178
1.90147
4.30129
-8.38777
-4.8212
-8.39396
7.26766
-6.97823
-9.28073
9.18724
7.57755
-7.6916
-5.78499
5.83128
6.48176
-6.44048
1.87909
1.87453
7.92759
-7.66633
-15.6512
15.262
6.56148
-6.39047
15.7583
-15.7447
-17.9938
18.3368
-5.73795
5.83467
-6.69801
6.70451
-6.87832
6.82283
-1.99667
-5.11483
12.3137
-12.0784
7.8719
-8.31714
-8.50195
8.86545
3.38243
0.922643
3.42923
-1.88234
3.76143
-1.87129
3.78078
4.21911
-6.21577
2.25995
-6.16838
4.61393
3.25797
-4.16381
-2.36104
-5.91858
5.94884
-5.8219
5.87914
8.90245
-8.96681
-1.88502
3.75956
-1.86889
3.77036
-3.42526
-2.35973
3.37996
0.921335
7.08783
5.22591
-7.18173
-1.21224
-7.79422
7.60322
-8.073
7.86891
-0.444685
5.82132
-5.37664
4.41652
-1.55603
7.37735
5.71163
5.92467
5.86674
-5.58903
1.11149
-6.48813
-6.39684
-2.54859
2.6791
2.51298
-2.34338
5.93993
1.63762
5.79737
-5.54625
-2.14535
-5.65358
3.82111
2.01017
3.87002
4.07561
2.40616
4.11634
3.03126
-3.03517
0.0039087
-3.05636
6.08762
0.724389
-5.41609
-4.49475
4.93365
2.99393
5.1354
-5.50118
-2.16515
-5.15251
-9.52229
-6.12895
-10.109
10.092
5.17005
9.7827
-11.9581
11.8236
3.70876
2.85272
3.70626
-4.52972
-1.86075
-4.45139
12.3364
-3.20801
-9.12835
-10.3927
-7.60108
10.2152
5.5431
10.82
7.51685
11.4309
4.69533
7.64102
-10.2384
2.63735
-3.87387
-1.86407
-3.79687
3.71305
2.12162
3.80768
-4.20707
-2.49094
-4.18427
-4.26213
-2.61619
4.26767
2.43684
-4.33757
-3.73543
4.45648
2.36635
4.22038
-9.04158
3.32803
-8.44286
-9.11198
-2.96641
-8.56675
5.44307
1.16424
-6.6073
-0.772706
9.30213
-6.04415
6.94109
-4.19736
-4.11978
-4.49442
-6.79366
-1.70828
-6.65966
-8.8635
8.371
-9.17457
8.51308
12.7258
-5.70348
-7.02232
-3.96814
-2.47234
3.92031
-0.491077
-3.7122
3.71611
0.049229
3.83001
4.75265
4.26158
-3.88691
-1.93499
-3.83267
3.83323
2.04591
3.894
6.72667
2.17578
6.72166
-6.42486
-2.54195
-6.55216
9.10133
-8.69564
2.94564
-2.94034
5.2607
2.60821
-5.04017
-2.75405
6.13385
-3.07887
-3.05498
-12.2127
10.5665
1.64622
-4.83535
-0.418832
-0.101466
-5.50258
-3.77815
5.38937
0.535306
11.1018
7.32363
-5.51248
5.76159
6.1662
6.22427
-0.172565
5.85124
-5.17606
5.36445
-2.4784
-2.88605
5.28949
-5.45397
-1.26267
-5.30027
4.0376
0.343394
1.75144
-1.48253
-2.01936
-0.529236
-1.96196
1.48697
1.02601
1.6687
0.989931
1.68917
-2.9299
0.52218
2.40772
-1.93997
-1.8212
-3.68577
-1.01611
4.70188
5.54331
2.05991
-5.43965
-0.213936
2.7415
-2.69342
-0.814057
-2.87171
2.08798
-2.90204
-3.54888
-1.90529
5.45416
-3.3707
-0.461965
3.3182
0.551819
-3.82512
-2.09346
3.78496
0.331384
-3.12446
6.18933
-3.06487
-5.05945
2.52925
3.55836
4.53942
-4.79038
2.44647
2.34391
-1.23202
4.19971
0.935687
4.36955
-6.71774
4.55259
5.72751
3.13794
-6.08274
0.93023
-5.78751
8.49422
-7.28597
-1.20824
4.1092
4.38502
7.18653
5.53927
-5.75343
12.94
-1.15312
-6.13285
6.94063
-3.80269
4.74108
-8.54377
-10.2804
4.1475
-9.22418
10.9473
-1.72311
-3.60299
-8.35507
12.8272
-1.21697
-11.6102
8.56573
-4.06442
-4.90574
8.97016
-7.27243
6.76649
-1.60491
-5.16158
-10.0942
-5.65046
10.2055
1.61811
-11.3037
13.941
-3.66265
3.09258
0.613674
2.98266
3.30479
-5.51819
2.2134
3.96764
-5.57255
1.99655
-7.51474
-7.50694
12.3065
-4.79959
-10.4734
-10.4798
0.00641248
2.36446
11.5766
-9.88131
6.9233
2.95801
3.31064
0.583354
-3.37857
-0.418301
0.295625
4.55542
-4.85104
4.10331
4.21417
3.42044
1.13497
3.83838
2.11047
-3.86633
-0.317942
-4.13643
1.52024
-1.69959
-3.64777
5.16801
-4.08485
0.437074
-2.73015
-3.53595
6.2661
-4.59422
3.03976
3.14957
5.08567
-4.91457
1.37862
-2.41487
-2.4997
2.70622
-4.40582
1.9499
3.21811
4.31625
0.580823
6.96212
5.3444
-8.12636
-0.316502
10.5703
-9.35808
3.18705
8.24388
-10.1103
-0.369418
-8.93617
-0.253994
-5.79016
-6.8613
5.0547
-6.76298
-3.48907
6.14155
0.580108
-6.20488
-0.454777
-6.01283
-2.85067
-6.45576
-3.06223
-6.11233
-8.81566
-1.64824
-7.16742
6.72276
-6.65691
-3.45213
7.39091
1.12217
-7.39705
7.33923
-7.47689
7.16538
0.0944727
3.62164
4.35605
1.88371
-2.38962
4.27333
-5.06776
7.24354
-8.48493
3.41717
3.98359
-6.52554
-4.50134
5.04857
4.05276
5.35507
8.9738
-10.5223
1.54845
-10.8501
12.1644
-1.31429
-16.6408
5.79072
-7.66699
2.68224
0.263398
2.70642
0.671958
2.41336
-3.08532
-2.26838
-2.26964
-2.315
-3.37917
5.69417
1.1432
-3.37539
2.23219
-3.46977
4.61297
-0.0695575
-3.30583
5.25405
-2.84069
5.51744
-3.53933
1.97812
3.29316
5.62083
-2.32767
4.31012
-1.70191
1.8231
-4.15077
-1.55607
-2.99655
5.11818
-3.26954
3.70662
-0.267137
3.97375
-4.06482
0.985955
-0.644378
3.5698
3.75055
4.26493
-3.12996
2.94082
-4.64273
-1.20995
-4.06191
-0.843796
-0.303832
-3.7908
4.09463
6.07572
-6.37956
-5.27352
9.59498
-4.32146
7.73801
-5.41316
-2.32486
-4.28628
-4.40936
3.90638
1.94487
9.68288
0.212751
-5.62591
-4.96331
-4.00941
3.21921
2.14525
-1.96585
3.61207
2.06731
-0.315877
0.581571
1.08713
1.85756
-1.27599
0.215857
1.6417
-1.26667
2.00564
0.73586
-2.0473
0.085336
-1.39935
3.48733
1.00837
-2.03438
0.758394
1.02031
-3.49872
4.80483
-2.47728
-2.32755
5.82514
1.15697
-3.63424
4.14331
-3.79991
2.32072
-3.33683
-1.31352
-5.11343
-3.47581
-2.49331
4.7255
-3.20085
5.26076
1.17662
-5.04683
6.22345
-3.56088
1.6556
-3.04654
3.7824
-1.05209
-1.99445
2.76425
2.68991
-2.91634
0.0446278
-0.152089
2.30413
-2.45621
-0.597915
-2.53788
-4.57297
4.90435
-2.10652
4.55299
2.16681
-1.91373
6.46672
1.81169
-3.72542
-3.24777
-3.70973
-1.38151
3.15791
-0.303624
-4.14777
-5.4652
4.04708
0.322469
-6.93427
7.78305
-0.848783
-3.94033
-0.612258
4.72146
-5.94506
0.372513
-3.94851
3.83453
4.77022
5.09269
-11.4349
-0.175258
-6.26489
1.15542
-7.4203
5.54043
-3.63575
7.78325
-10.4264
6.97425
-9.30421
6.575
-0.845301
6.31355
-4.10015
2.8148
-8.46525
-6.84714
5.2743
-2.42158
5.88797
-2.88594
8.77391
-6.54858
4.82364
3.95027
-1.38738
-3.10704
-4.46695
3.07957
0.356684
3.33934
4.97589
-2.86542
4.65794
2.23882
-4.65369
-2.167
-6.49689
1.8432
-3.34732
-1.91206
3.75526
3.17361
3.75697
1.25556
-3.33867
9.15663
-9.15022
-4.35704
-2.50426
4.837
-1.75743
5.07294
-7.5772
-0.71722
4.89491
-0.840693
-4.05422
0.808572
-4.29764
1.65
-5.94764
5.11298
-5.56776
2.19345
-9.86043
-5.20361
-5.11553
-2.23729
-5.23961
-7.65439
5.4171
-1.86367
5.47555
-8.66681
7.82611
-3.49756
8.91466
-5.41862
-1.03713
5.82861
1.33677
10.2514
0.148933
-4.65027
-1.90614
4.0065
-2.10036
1.31307
-3.64187
0.364631
2.42747
3.39767
-6.46507
-0.0604741
-4.71074
-3.92833
7.98109
5.66665
11.7424
1.22012
9.18631
-1.20523
10.4064
4.14984
4.38351
-3.03725
4.5857
1.05738
4.47455
-0.845133
2.82325
1.86129
1.86462
0.828802
2.29492
1.45563
3.28087
0.195558
-2.07408
4.64309
-8.6525
-0.982821
-8.08487
1.10237
5.73007
-4.6277
3.17066
-1.02542
1.0703
0.0827817
-1.64389
1.56111
-2.80327
-1.95977
-0.318068
-1.59911
2.35751
1.88822
-2.03944
-0.76383
0.316774
-3.79258
3.02005
-2.97543
-0.285517
5.93793
-2.72644
0.27023
-1.07085
-2.26765
-2.79689
2.71155
6.17547
0.291256
3.11059
5.19561
3.10214
0.236726
3.98518
-5.70829
-3.52955
-5.88355
-0.343117
4.37834
2.21646
9.3601
6.16674
4.40931
-3.16789
-12.3181
6.5661
-1.98039
5.25181
-1.19759
-4.75005
4.97399
2.26955
-5.5541
-0.0136593
-4.76371
-6.7441
-0.544893
8.371
-9.70654
8.66941
5.81873
1.34869
-4.4096
-0.705938
4.22357
0.159932
10.5664
-1.12158
-6.84369
7.96527
-4.60849
3.62567
0.853108
2.75896
2.41422
1.3888
-5.45489
-10.0826
-1.92345
-1.57526
-4.251
0.450876
-2.33909
6.26742
-2.64175
3.94257
5.32352
6.39382
-2.16584
-4.21372
6.4873
-2.54473
3.84909
)
;

boundaryField
{
    wall-4
    {
        type            calculated;
        value           uniform 0;
    }
    velocity-inlet-5
    {
        type            calculated;
        value           uniform -3.75095;
    }
    velocity-inlet-6
    {
        type            calculated;
        value           uniform -5.62643;
    }
    pressure-outlet-7
    {
        type            calculated;
        value           nonuniform List<scalar> 8(5.53576 5.51447 6.03731 7.60734 7.22661 6.46425 6.77574 7.35187);
    }
    wall-8
    {
        type            calculated;
        value           uniform 0;
    }
    frontAndBackPlanes
    {
        type            empty;
        value           nonuniform 0();
    }
}


// ************************************************************************* //
