/*--------------------------------*- C++ -*----------------------------------*\
| =========                 |                                                 |
| \\      /  F ield         | OpenFOAM: The Open Source CFD Toolbox           |
|  \\    /   O peration     | Version:  4.0                                   |
|   \\  /    A nd           | Web:      www.OpenFOAM.org                      |
|    \\/     M anipulation  |                                                 |
\*---------------------------------------------------------------------------*/
FoamFile
{
    version     2.0;
    format      ascii;
    class       volVectorField;
    location    "27";
    object      U;
}
// * * * * * * * * * * * * * * * * * * * * * * * * * * * * * * * * * * * * * //

dimensions      [0 1 -1 0 0 0 0];

internalField   nonuniform List<vector> 
918
(
(0.985168 -0.000498311 0)
(0.00500823 2.96625 0)
(-0.0317914 1.46324 0)
(0.979701 0.00214853 0)
(0.00789435 1.45173 7.01458e-20)
(-0.00703779 2.94879 -1.90564e-18)
(0.841045 1.18156 6.98079e-19)
(0.372472 0.169342 -9.75468e-21)
(0.999906 -0.000291977 0)
(0.0575331 0.851581 0)
(-0.00643006 0.627742 0)
(0.732727 -0.00872086 0)
(0.0110942 2.93039 0)
(0.00205175 2.7949 0)
(-0.0174846 3.16098 1.04854e-18)
(0.0152546 1.20778 2.48181e-19)
(0.46924 0.0679913 6.13879e-19)
(0.189419 1.2147 5.99279e-19)
(0.962823 0.00498657 0)
(-0.0437561 0.950791 0)
(0.0992875 0.21017 -4.83348e-19)
(1.002 -0.00498464 0)
(1.00021 -0.00980522 0)
(0.975707 -0.00644628 0)
(0.619861 -0.0444479 0)
(0.0164111 2.6369 0)
(-0.0150157 2.91012 6.61868e-19)
(-0.0787558 1.42023 0)
(-0.0812317 1.59871 0)
(-0.0455573 1.44101 0)
(-0.000871889 2.04563 0)
(0.0553768 1.49528 -5.54249e-20)
(0.0377715 1.23694 0)
(-0.0206256 2.98759 -6.67927e-23)
(-0.0166977 3.0053 1.4812e-18)
(0.00210317 3.0002 0)
(0.870007 -0.00937385 0)
(0.403286 0.941031 -8.12365e-21)
(0.818818 1.20033 -9.68092e-19)
(0.968232 1.036 9.14935e-19)
(0.686889 1.29591 -1.61953e-19)
(0.685183 1.28635 9.08104e-19)
(0.413306 0.26343 9.5171e-21)
(0.403429 0.152089 0)
(1.15592 0.559291 0)
(0.374393 0.266479 4.39845e-20)
(0.325887 0.171632 -4.56475e-20)
(0.919626 -0.00752313 0)
(1.00029 0.000151196 0)
(0.999912 0.000344963 0)
(1.00364 -0.00779098 0)
(1.00095 -0.000951601 0)
(1.00017 1.93824e-05 0)
(0.0771608 1.78086 -2.67729e-19)
(0.0450456 0.998892 0)
(0.0889587 0.935406 0)
(0.0188984 0.936456 0)
(0.0382618 0.784823 0)
(-0.00882489 1.98182 0)
(0.0278573 0.775279 0)
(0.00821138 0.669508 0)
(-0.0147005 0.739444 0)
(-0.0217025 0.633726 0)
(0.832422 -0.0140796 0)
(0.85321 0.025074 0)
(0.766755 0.00143662 0)
(0.828784 0.0300728 0)
(0.707103 -0.0167528 0)
(0.014696 3.0004 6.98317e-19)
(0.0115141 3.00792 0)
(0.00613057 3.00282 0)
(0.0135308 2.99733 7.7963e-24)
(0.00799446 2.95848 -1.03787e-18)
(0.0144812 2.98209 0)
(0.0108031 2.90363 0)
(0.0247377 2.93076 1.40956e-24)
(0.00437854 2.82492 0)
(0.0307171 2.91601 0)
(-0.00581798 2.74442 0)
(0.310399 3.56029 0)
(-0.132151 3.64215 0)
(0.140776 3.25181 -9.75798e-19)
(-0.0120138 2.98544 0)
(-0.159696 1.93085 0)
(0.0334312 1.42329 -2.44753e-19)
(-0.0532796 1.2673 2.41432e-19)
(0.541938 0.153958 -2.11567e-19)
(0.468506 0.0382091 -2.0464e-19)
(0.521775 0.180541 -6.38928e-19)
(0.452295 0.0898645 -4.27472e-19)
(0.215256 0.910395 0)
(0.26948 1.35498 -6.30947e-19)
(0.385922 1.30336 1.03721e-18)
(0.987563 0.00852699 0)
(0.942142 0.00588473 0)
(1.0003 0.000573616 0)
(1.00287 0.00930214 0)
(1.00302 0.00842451 -1.2679e-18)
(0.991924 0.0097167 9.57341e-19)
(-0.0662652 1.0181 0)
(-0.0423019 0.829205 0)
(-0.0966356 1.37833 0)
(-0.0537596 1.15879 0)
(-0.0247373 1.09691 0)
(0.149929 0.218551 1.49265e-19)
(0.201392 0.195944 0)
(0.993514 -0.00840386 0)
(0.954362 -0.00649294 0)
(0.789698 0.0321328 0)
(0.748681 0.041771 0)
(0.675453 -0.0333871 0)
(0.961051 -0.00350771 0)
(0.683398 0.0589505 0)
(0.52132 -0.0203318 8.28457e-19)
(-0.0365508 2.86395 3.5556e-19)
(0.0424641 2.90859 0)
(0.0550636 2.8845 0)
(-0.00503016 2.69838 0)
(-0.0131563 2.98533 6.09457e-19)
(-0.0180712 2.89537 0)
(-0.015326 2.98815 -1.92564e-18)
(-0.0133955 2.92524 6.64573e-19)
(-0.163007 1.63676 0)
(-0.155779 1.72145 0)
(0.0685357 1.40603 7.25741e-21)
(0.0714731 1.39748 0)
(0.0117588 1.20364 0)
(0.937408 -0.00776318 0)
(0.855292 -0.00938047 0)
(0.864294 0.00707935 0)
(0.948757 -0.0079635 0)
(0.88331 -0.00839288 0)
(0.516454 1.1358 1.83457e-22)
(0.566974 1.18807 0)
(0.365475 0.883568 7.6959e-21)
(0.30787 0.743644 0)
(0.928116 1.07468 -2.63892e-19)
(1.04169 0.87613 5.39654e-19)
(0.379824 1.39404 0)
(0.540649 1.36305 0)
(0.545264 1.32387 0)
(0.10377 0.171415 -1.52364e-19)
(0.456097 0.247351 0)
(0.436909 0.139092 1.22395e-19)
(1.01212 0.930059 0)
(1.07999 0.777312 0)
(1.10531 0.719549 -4.69401e-19)
(1.13579 0.618627 0)
(1.18461 0.403736 5.72352e-20)
(0.957286 -0.0086461 0)
(0.96225 -0.0100803 0)
(0.901339 -0.00815501 0)
(0.984107 -0.00919641 0)
(0.97456 -0.00937623 0)
(0.936975 -0.00631056 0)
(1.00018 0.00232252 0)
(1.0009 0.00143593 0)
(0.999903 0.000848291 0)
(0.0362487 2.04353 1.6958e-19)
(0.120292 1.7184 0)
(0.0148583 2.15504 1.54005e-19)
(0.0583972 1.85505 -6.76686e-20)
(0.136804 1.20567 -4.96079e-19)
(0.0451853 1.08183 0)
(0.0959706 1.07834 0)
(0.0253939 0.879313 0)
(-1.20707e-05 0.726526 0)
(-0.022048 2.18012 2.60969e-21)
(0.0167889 1.97905 0)
(-0.0588761 2.13187 1.69022e-19)
(-0.0303821 1.93511 -3.3724e-19)
(-0.000941718 0.851858 0)
(0.0132681 0.82495 0)
(-0.00401709 0.688996 0)
(-0.0306212 0.755101 0)
(-0.0303883 0.669473 0)
(0.92859 0.0075194 0)
(0.838292 -0.0128226 0)
(0.922429 -0.000693608 0)
(0.838004 -0.0110411 0)
(0.813885 0.00490655 0)
(0.904082 0.0181614 0)
(0.882338 0.0207257 0)
(0.790175 0.00303759 0)
(0.00583833 3.06493 -6.1662e-21)
(0.0165912 3.05789 0)
(0.0147206 2.96911 0)
(0.00860507 2.8763 0)
(0.929066 3.97947 0)
(1.24473 3.31146 1.0042e-18)
(0.0708599 3.07747 0)
(-0.0273351 2.90746 0)
(-0.222372 1.72195 0)
(-0.22419 1.89187 0)
(-0.183701 1.80552 0)
(-0.0397996 2.05889 -1.19336e-20)
(-0.173902 1.99934 0)
(-0.102259 1.96851 0)
(-0.109232 1.66614 1.17067e-20)
(-0.105212 1.69816 -1.8061e-19)
(-0.0480616 1.5189 -2.46853e-19)
(-0.107669 1.4354 0)
(0.570118 0.124647 3.10978e-19)
(0.485577 0.0138243 -3.0423e-19)
(0.260448 1.5449 0)
(0.262683 0.686016 -2.19221e-19)
(0.178743 1.63319 -7.35388e-19)
(0.226327 1.16166 7.37247e-19)
(0.902563 0.00668956 0)
(0.967626 0.0109848 0)
(0.974769 0.0107546 0)
(0.923664 0.0066685 0)
(-0.0371533 0.805838 0)
(-0.043735 0.88985 0)
(-0.0491966 0.742169 0)
(0.318167 0.258137 4.02092e-19)
(0.260221 0.234254 -4.8155e-19)
(0.271407 0.183448 0)
(1.08944 0.086857 -6.13008e-22)
(1.07301 0.0404919 0)
(1.00102 0.0415595 0)
(0.89576 0.00114798 0)
(0.593676 0.0955615 0)
(0.623574 0.0707413 -1.33244e-18)
(0.500545 -0.000507793 5.07373e-19)
(0.00941774 2.98176 4.39962e-19)
(-0.0321266 2.86696 4.83285e-20)
(0.00368591 3.0502 -1.33004e-20)
(0.0200906 3.04346 4.77734e-19)
(-0.0150149 2.99657 2.20752e-20)
(-0.0129582 2.94945 -8.9342e-23)
(-0.0172579 3.01199 -4.17922e-19)
(0.0147923 3.02403 3.0217e-19)
(0.00730842 3.03672 -4.72274e-19)
(0.930849 -0.00104434 0)
(0.937553 -0.00378885 0)
(0.843412 -0.00855835 0)
(0.956935 0.0114857 0)
(0.943492 0.0124257 0)
(0.882347 0.00640845 0)
(0.91955 0.0153251 0)
(0.927498 0.0142309 0)
(0.840154 0.00584908 0)
(0.722135 1.41643 2.96615e-19)
(0.756291 1.52609 0)
(0.204281 0.354111 3.09362e-20)
(0.192317 0.634243 2.52205e-19)
(0.253039 0.710805 -1.46244e-19)
(0.275295 0.557918 2.77916e-19)
(0.31117 0.736198 8.4956e-19)
(0.117265 0.200307 2.32041e-19)
(0.499687 0.200523 4.57705e-19)
(0.482385 0.221025 1.16012e-19)
(0.446047 0.116 2.30383e-19)
(1.17283 0.460531 2.70652e-19)
(1.18534 0.255421 2.80316e-19)
(0.00454917 2.1791 1.70179e-20)
(0.0480107 1.90506 0)
(0.956005 0.0310672 0)
(0.928718 0.0151541 0)
(0.855253 -0.0106939 0)
(0.0110876 3.07435 0)
(0.0197858 2.94417 8.24512e-19)
(0.0164781 2.95635 0)
(0.00626377 2.85069 -8.17752e-19)
(0.0062887 3.09162 1.95715e-19)
(0.00725238 3.08266 0)
(0.789902 1.8297 -2.31012e-19)
(1.25252 2.50943 6.33147e-19)
(0.772274 1.96975 -1.46503e-18)
(0.0204492 2.98227 -3.29949e-19)
(0.0364714 3.00355 0)
(-0.0331525 2.87965 0)
(-0.0911918 2.04572 1.78636e-21)
(-0.131317 1.88909 3.32959e-19)
(-0.087436 1.84536 5.96498e-21)
(0.274232 1.35232 7.16465e-19)
(0.2135 0.464992 -4.93565e-19)
(0.0633268 1.965 4.86295e-19)
(0.137806 1.85275 -6.06798e-19)
(0.178598 1.45694 8.58997e-20)
(0.00372909 3.11792 -1.13728e-18)
(0.0170428 3.118 1.2162e-18)
(-0.00892987 2.98086 5.32231e-19)
(-0.00299456 2.97744 -4.75126e-19)
(-0.021516 2.88187 -5.42062e-19)
(0.00872499 3.09876 -1.43452e-18)
(0.00200403 3.10682 1.3961e-18)
(0.251561 0.650779 0)
(0.210165 0.639527 -5.05021e-19)
(0.10429 0.216004 2.27467e-19)
(0.332355 0.857518 6.97583e-19)
(0.175757 0.240607 -1.06922e-18)
(1.17656 0.173466 -4.48267e-20)
(1.1857 0.308883 0)
(1.16486 0.121173 1.06429e-19)
(0.00647155 2.1994 2.15862e-21)
(0.00321749 2.20071 0)
(0.0218362 1.94435 0)
(0.337269 1.25055 -2.59626e-19)
(0.356782 1.06994 -5.5387e-19)
(0.186671 0.335009 9.57853e-19)
(1.00584 -0.0108996 0)
(1.00765 -0.00767639 2.31869e-19)
(-0.18805 1.57812 0)
(-0.19106 1.53036 0)
(1.00221 0.00352515 1.82002e-21)
(1.00372 0.0094573 4.76444e-19)
(-0.0445376 2.08721 1.51934e-20)
(-0.021898 2.12365 0)
(0.0374414 3.18033 1.40709e-19)
(0.397986 3.49597 0)
(1.12827 0.647867 5.23793e-20)
(1.01298 0.0130507 -2.11053e-21)
(1.02116 -0.0105271 0)
(1.00173 0.000157658 9.96904e-23)
(0.104627 1.35479 0)
(0.149346 2.57565 0)
(0.0845152 1.13622 0)
(-0.00344862 2.61714 -1.87836e-19)
(-0.074787 2.61466 -1.99528e-19)
(1.00651 0.0292183 2.73129e-21)
(1.05845 -0.00263479 0)
(1.08278 0.017422 0)
(-0.241759 1.89886 0)
(-0.164071 2.4008 0)
(-0.232476 1.22503 0)
(0.27526 1.46459 -4.09423e-19)
(1.01124 -0.00973356 0)
(1.00933 -0.0149884 0)
(1.00249 0.000727673 2.96009e-19)
(1.00548 -0.00487208 -3.48131e-19)
(1.00118 -0.00104471 0)
(-0.310567 1.79213 0)
(-0.243284 1.59895 0)
(-0.257392 1.7231 0)
(-0.227805 1.24287 0)
(-0.235095 1.39919 0)
(-0.189413 1.29055 0)
(1.03435 -0.00688201 0)
(1.02082 0.0154834 -1.03574e-21)
(0.786609 1.25566 4.92076e-19)
(1.00222 0.00037305 -2.9363e-19)
(1.00411 0.00526524 3.47393e-19)
(1.00116 0.00204172 0)
(1.01291 0.0102079 2.89232e-19)
(1.00798 0.00823215 -3.57127e-19)
(1.00867 0.0145781 0)
(-0.140143 2.38671 0)
(-0.0649476 2.24325 -1.86858e-19)
(-0.0615212 2.2611 1.56224e-19)
(1.20012 0.260374 -4.85008e-21)
(1.13754 0.088749 0)
(0.0474428 3.07757 -5.45884e-19)
(0.0666373 2.85277 -4.28804e-20)
(0.144522 3.19491 8.72038e-19)
(0.139497 3.22401 -1.94652e-20)
(0.137529 3.23727 0)
(0.0204913 3.13777 1.22234e-19)
(0.0781844 3.16137 5.32735e-19)
(0.0711014 3.18762 -2.35078e-19)
(0.023422 3.12943 0)
(0.658985 0.316478 0)
(0.577212 0.371057 0)
(1.0997 0.676467 -2.09859e-19)
(1.09685 0.808603 3.33986e-19)
(1.15726 0.568015 0)
(1.18689 0.51327 0)
(1.01616 0.0132976 -5.35737e-19)
(1.01497 0.0142229 6.69791e-19)
(1.02507 -0.0103134 0)
(1.02299 -0.0124624 0)
(1.00657 0.00243692 0)
(1.01049 0.00360669 0)
(1.00436 0.00185985 0)
(1.00977 0.00614994 0)
(1.00789 0.00577515 0)
(1.00452 0.00460189 0)
(0.0934745 1.35434 0)
(0.0880964 1.31738 0)
(0.119806 1.38224 0)
(0.133671 1.40758 0)
(0.147381 2.59764 0)
(0.188815 2.65709 -2.24478e-19)
(0.0993454 2.65463 0)
(0.0864694 2.65723 2.71346e-21)
(0.0284898 2.68018 1.87856e-19)
(0.0789153 1.09218 0)
(0.0179994 0.971742 0)
(0.128134 1.18869 0)
(0.0261773 1.14153 0)
(0.0457936 2.023 2.73846e-19)
(-0.0802852 2.6311 -2.58157e-19)
(-0.0182905 2.66109 -3.09124e-19)
(-0.0537594 2.66608 0)
(-0.136453 2.64989 5.56371e-19)
(-0.167812 2.62251 3.62445e-19)
(0.0277862 2.11087 -1.77742e-19)
(-0.0561378 2.51756 3.63858e-19)
(0.00928502 2.4963 3.70798e-19)
(1.01517 0.0350562 5.36552e-19)
(1.00869 0.0197879 -6.59739e-19)
(1.00683 0.0404739 -5.44405e-19)
(0.988614 0.0203181 7.01771e-19)
(1.05931 0.00328157 0)
(1.04615 -0.0110859 0)
(1.08218 0.0245245 0)
(1.06611 0.00449233 0)
(1.06231 -0.00526376 0)
(1.12134 0.0781745 0)
(1.09437 0.0408955 0)
(1.09581 0.0335543 0)
(-0.155266 2.13126 5.50494e-21)
(-0.268925 2.03641 0)
(-0.197268 2.0334 0)
(-0.209621 2.52454 -1.75556e-19)
(-0.197574 2.50523 6.87903e-21)
(-0.390477 1.8978 -1.32023e-19)
(-0.315654 1.80497 1.3291e-19)
(-0.335582 1.53703 0)
(-0.334325 1.56612 0)
(-0.304395 1.59413 0)
(-0.22647 1.19714 0)
(-0.119291 1.02526 0)
(0.371572 1.47684 7.7491e-19)
(0.405104 1.48895 3.1025e-19)
(0.592312 2.44291 -1.63918e-19)
(0.405946 2.53619 4.5178e-19)
(0.352141 2.08578 -3.65979e-20)
(1.02091 -0.00848703 0)
(1.01545 -0.00992168 0)
(1.0148 -0.01561 0)
(1.00773 -0.00145731 0)
(1.00497 -0.00110065 0)
(1.00773 -0.00491847 0)
(1.00922 -0.00381279 0)
(1.01408 -0.00452999 0)
(1.02156 0.0157796 5.13348e-19)
(1.01816 0.015742 -6.61215e-19)
(1.02207 0.0175516 -5.14669e-19)
(1.01948 0.0162602 6.44386e-19)
(0.754691 1.30606 0)
(0.688451 1.36037 5.71649e-19)
(0.864975 1.19914 3.30825e-19)
(0.909268 1.15662 -4.40076e-19)
(1.15979 2.61601 -4.52052e-19)
(0.829398 0.0971466 3.25778e-19)
(1.13795 0.104035 0)
(1.18143 0.185441 7.8676e-21)
(1.16629 0.158147 4.50502e-22)
(0.998166 0.128304 0)
(0.140193 2.96351 1.82495e-19)
(0.118531 2.86928 -7.10572e-19)
(0.0299238 2.36716 5.01397e-19)
(0.094735 0.0369444 -2.12053e-19)
(0.342884 3.42488 -4.14247e-19)
(0.196841 3.31659 0)
(0.238987 3.35922 5.39483e-19)
(0.249432 3.03649 -8.79969e-19)
(0.34344 3.1955 0)
(0.00605369 3.12099 2.77814e-20)
(0.0167587 3.12969 -3.49833e-19)
(0.0146145 3.12567 5.1489e-19)
(0.0361174 3.14011 0)
(0.0346989 3.15096 0)
(1.2207 2.61619 0)
(0.549298 0.840959 -2.74171e-19)
(1.02803 0.983319 -1.82095e-19)
(0.965561 1.05328 0)
(0.811452 0.955705 3.68563e-20)
(1.05076 0.866491 3.02672e-20)
(0.37839 0.419563 -5.65307e-19)
(0.701341 0.326867 -2.28928e-20)
(0.69034 0.254547 2.51316e-19)
(0.591406 0.40102 1.91965e-20)
(0.513188 0.379614 -7.8194e-19)
(0.669583 0.355163 0)
(0.69174 0.433678 4.14568e-19)
(0.697597 0.431898 0)
(0.628594 0.387897 0)
(0.612065 0.321207 0)
(0.77883 0.611529 1.6478e-19)
(1.19698 0.278553 -1.12878e-20)
(1.19188 0.41471 0)
(1.20611 0.36289 0)
(0.769532 0.204168 3.6958e-19)
(0.824373 0.542395 -2.10456e-19)
(0.731349 0.517042 3.47726e-19)
(0.920473 0.418562 -3.37127e-19)
(1.02002 0.0144021 3.553e-19)
(1.01795 0.0140919 -3.60882e-19)
(1.016 0.0155129 0)
(1.03557 -0.00643113 0)
(1.02931 -0.00882648 -3.27792e-19)
(1.02706 -0.0127493 3.244e-19)
(1.02522 0.00942197 0)
(1.02387 0.0129794 0)
(1.01147 0.00391693 0)
(1.01436 0.0087686 0)
(1.01518 0.00358668 0)
(1.01408 0.0027426 0)
(0.0657092 1.34285 0)
(0.0605955 1.28117 0)
(0.153141 1.3353 3.02835e-19)
(0.257747 1.46254 2.32313e-19)
(0.152253 1.43709 4.93384e-19)
(0.180222 1.4448 -8.0675e-19)
(0.177767 1.37304 0)
(0.126362 1.59795 2.40646e-19)
(0.116944 1.56782 0)
(0.350708 2.04041 5.31773e-20)
(0.351128 2.3709 2.70247e-19)
(0.184336 1.43923 -2.09987e-19)
(0.26141 1.36315 1.73525e-19)
(0.196049 1.3533 -1.38975e-19)
(0.269899 1.30125 2.73174e-19)
(0.23913 1.57613 0)
(0.252094 1.61729 -1.74319e-19)
(0.0476161 2.27232 9.16837e-20)
(0.0420557 2.6687 0)
(0.0705529 2.40185 -1.52859e-19)
(0.040861 2.42157 0)
(0.0654359 2.66752 -4.25087e-21)
(0.0427918 2.69714 0)
(0.173316 1.48591 3.57554e-19)
(0.157444 1.57145 0)
(0.139526 1.38768 0)
(0.197244 1.38049 -4.11831e-19)
(-0.00479815 2.6448 -2.78435e-20)
(0.0251606 2.69725 -2.46289e-19)
(0.0123218 2.7182 -1.72142e-21)
(0.0673968 2.07664 -3.34632e-19)
(0.141942 1.79159 -1.38986e-19)
(-0.0279053 0.983076 0)
(-0.0225432 0.899893 0)
(0.0516527 1.604 -3.89512e-19)
(0.101395 1.45196 -4.0409e-19)
(0.0933703 1.58838 5.13226e-19)
(0.0419124 1.60773 0)
(-0.293695 2.33187 6.67311e-19)
(-0.241568 2.52954 -2.58652e-19)
(-0.258451 2.52463 8.24479e-20)
(-0.0367571 2.07142 4.06447e-19)
(-0.22322 2.58944 1.34957e-19)
(-0.136888 2.55538 -4.50366e-19)
(1.02076 0.020352 -3.4954e-19)
(1.0181 0.0259725 3.5177e-19)
(1.01476 0.0173611 0)
(1.01809 0.0572081 5.00008e-19)
(0.996707 0.0486356 -5.83663e-19)
(0.961228 0.0304186 6.70157e-19)
(1.01638 0.0883864 -6.52099e-20)
(1.04179 -0.00682466 0)
(1.04884 -0.00340327 2.97563e-19)
(1.03801 -0.0108282 -2.97655e-19)
(1.0656 0.0325927 -1.66628e-20)
(1.05889 0.0143651 1.47795e-19)
(1.06284 0.0451374 0)
(1.05841 0.037646 -5.44396e-20)
(1.0362 0.0348546 0)
(1.03045 0.0324125 0)
(1.0273 0.0125662 0)
(1.02437 0.0152497 0)
(1.04214 0.0257423 1.13137e-19)
(1.03868 0.0200048 -2.56649e-19)
(1.05299 0.0227603 -1.16273e-19)
(1.05063 0.0231035 -1.31819e-19)
(1.07219 0.0537763 2.41418e-19)
(1.08342 0.046868 0)
(1.09089 0.0935866 0)
(-0.314305 2.30724 1.73346e-19)
(-0.303953 2.08092 1.06149e-20)
(-0.30359 2.12385 0)
(-0.222109 2.31088 -1.72287e-19)
(-0.16298 2.18332 -1.59417e-20)
(-0.191321 2.25291 3.18879e-20)
(-0.19673 2.63826 -2.91379e-19)
(-0.221729 2.59253 2.54245e-20)
(-0.230688 2.58674 -1.02004e-19)
(-0.214751 2.60033 2.12539e-19)
(-0.217348 2.58309 -2.52628e-19)
(-0.442694 1.73584 -1.6604e-20)
(-0.370897 1.92198 -2.88046e-19)
(0.362141 1.40865 -3.8093e-19)
(0.358171 1.35148 -3.53858e-19)
(0.637724 1.40749 -5.52876e-19)
(0.506521 1.47275 -2.99711e-19)
(0.555309 1.44901 0)
(0.58864 2.41686 1.32528e-19)
(0.655937 2.40639 2.36799e-19)
(0.411366 2.51213 7.97005e-20)
(0.405139 2.55566 -2.10729e-19)
(0.515019 2.51233 3.00219e-19)
(0.545976 2.45633 0)
(0.487878 2.50445 -3.7398e-19)
(0.249458 2.58379 6.42887e-19)
(0.354333 2.55939 -8.02958e-20)
(0.286378 2.64324 -9.65018e-19)
(0.930258 2.3838 2.92266e-19)
(0.828364 2.38245 0)
(1.01082 7.94607e-05 1.17796e-20)
(1.01501 -0.00553343 -9.55091e-21)
(1.01747 -0.00366715 -1.73242e-19)
(1.01472 -0.000971183 1.74135e-19)
(1.01215 0.000773091 0)
(0.624782 1.27705 0)
(0.638081 1.15923 0)
(0.741064 1.06483 0)
(0.630272 1.13261 0)
(1.18699 2.63272 5.66509e-20)
(1.07695 2.3736 0)
(0.8441 2.21524 -1.1458e-21)
(0.827768 2.47481 0)
(0.921131 2.56071 -2.48582e-20)
(0.957358 2.51508 1.65831e-20)
(0.839566 0.147127 0)
(0.807923 0.138657 9.29068e-20)
(0.926355 0.122224 4.87788e-19)
(0.8578 0.118616 -1.93287e-19)
(0.841477 0.0625867 -5.80808e-19)
(1.05207 0.220084 -3.18722e-19)
(0.96923 0.273267 -1.57551e-20)
(0.907162 0.270168 4.46594e-19)
(0.986434 0.20105 3.39133e-19)
(0.941824 0.160771 -6.20821e-19)
(0.914254 0.170012 7.97653e-20)
(0.940965 0.232467 -1.58469e-19)
(0.918205 0.192134 0)
(0.981746 0.160878 2.99729e-19)
(1.02958 0.168315 0)
(1.02357 0.194304 0)
(1.08559 0.112084 1.04439e-19)
(1.05532 0.160491 -1.31471e-20)
(1.0465 0.223792 -5.81799e-20)
(1.0807 0.194257 0)
(1.02674 0.03893 2.65963e-19)
(1.04684 0.0486851 3.19426e-19)
(1.03844 0.0357661 -2.64772e-19)
(1.04877 0.0547096 -2.14791e-19)
(1.02388 0.061336 -3.52002e-19)
(0.983172 0.130359 0)
(1.00151 0.0832311 0)
(0.97156 0.0457971 -2.4205e-19)
(0.927401 0.0618404 9.95569e-20)
(1.03879 0.0874405 3.00457e-19)
(1.05958 0.112675 -3.15108e-19)
(1.06397 0.14042 2.87046e-19)
(1.02821 0.128286 0)
(1.06845 0.0997379 0)
(1.05638 0.0793867 -1.30632e-19)
(1.04973 0.0841806 -2.41712e-19)
(0.585226 1.09029 -6.71299e-20)
(0.620186 1.42822 1.69434e-19)
(1.16069 2.74999 6.22063e-20)
(1.22737 3.08917 -6.18474e-20)
(1.25162 2.73143 4.80888e-19)
(1.28321 2.71483 -3.04158e-19)
(1.2112 2.35499 -8.98506e-21)
(1.2141 2.99365 1.5987e-19)
(1.23265 2.95916 -1.61231e-19)
(1.21909 3.24286 -2.53317e-19)
(1.38053 2.97561 3.5055e-19)
(1.3725 2.89352 0)
(0.545563 0.848045 -1.77888e-20)
(0.147554 1.26887 3.96718e-19)
(0.525115 0.47902 3.71527e-19)
(0.363011 0.239845 4.03753e-19)
(0.532542 0.406743 4.39426e-19)
(0.542678 0.490576 -6.85183e-19)
(0.544516 0.493001 5.61199e-19)
(0.499352 0.424214 -2.24132e-19)
(0.433038 0.364406 5.14959e-19)
(0.771213 0.258133 -2.07405e-19)
(0.732363 0.288479 0)
(0.727317 0.227429 1.03815e-20)
(0.714008 0.518864 2.13256e-19)
(0.681509 0.490821 -7.86534e-19)
(0.603261 0.487022 1.66489e-20)
(0.619256 0.476357 0)
(0.673288 0.728634 1.78623e-19)
(0.809677 0.76398 9.82785e-20)
(0.739109 0.841759 -1.21787e-19)
(0.85241 0.799044 -3.35007e-20)
(0.882254 0.836975 8.2439e-21)
(0.89095 0.839104 -8.4401e-21)
(0.81986 0.640055 -2.79554e-19)
(0.899192 0.69355 3.11259e-20)
(0.953843 0.703454 0)
(0.943599 0.677884 -3.59675e-20)
(0.995526 0.314378 7.99922e-20)
(1.10952 0.286983 3.52509e-20)
(1.03632 0.255953 1.30279e-19)
(0.974861 0.347287 -1.77031e-19)
(1.02042 0.413097 0)
(1.07537 0.402412 0)
(0.895459 0.353064 5.24106e-21)
(0.837171 0.287705 0)
(0.854538 0.276199 2.26403e-19)
(0.890744 0.277467 -6.31168e-21)
(0.91252 0.421588 9.26085e-19)
(0.86974 0.484673 2.36628e-19)
(0.873859 0.449177 -2.90511e-19)
(0.804636 0.435971 3.11849e-19)
(0.78797 0.436438 2.07069e-19)
(0.755621 0.42204 -2.03252e-19)
(1.02815 -0.000696399 2.76337e-19)
(1.02013 -2.03828e-05 0)
(1.01855 0.000992392 1.85753e-19)
(1.02128 -0.00218724 -4.18496e-19)
(1.02212 0.00402568 2.03494e-19)
(1.02032 0.0107353 -4.27122e-19)
(1.02139 0.0101724 0)
(1.02102 0.0103635 -8.9886e-20)
(1.01598 0.00739979 2.25558e-19)
(1.01678 0.0100746 -1.12747e-19)
(1.01747 0.00933532 8.28962e-20)
(0.0803108 1.26549 0)
(0.12657 1.33283 0)
(0.065393 1.31995 0)
(0.0508512 1.21923 0)
(0.0575257 1.3835 -6.4377e-19)
(0.0821183 1.34651 2.05173e-19)
(0.103204 1.5097 1.42451e-19)
(0.0880997 1.34876 -1.61122e-19)
(0.0683823 1.4705 3.9033e-19)
(0.058704 1.45231 -2.98525e-19)
(0.0586937 1.37093 -4.47797e-21)
(0.065499 1.37869 3.91022e-19)
(0.0755925 1.34686 5.76357e-20)
(0.0755279 1.40075 5.18877e-20)
(0.104188 2.39347 1.69932e-19)
(0.0995057 2.42761 0)
(0.173383 2.06516 -2.36048e-20)
(0.100983 1.71416 -9.5384e-20)
(0.227915 2.06884 1.86164e-20)
(0.211356 2.45384 0)
(0.269456 2.4074 -1.68063e-19)
(0.302639 2.40862 1.19801e-19)
(0.227365 2.02221 5.16153e-20)
(0.149967 2.18442 1.16762e-20)
(0.147861 2.30807 0)
(0.0285058 1.87906 4.00574e-19)
(-0.0190147 2.39031 4.28641e-19)
(-0.0101949 2.17556 0)
(0.0120258 2.45215 -1.30053e-20)
(-0.00449152 2.30508 -1.8514e-19)
(0.137974 1.41051 -7.76225e-20)
(0.0606035 1.27508 1.31672e-18)
(0.0505034 1.35889 -3.88156e-19)
(0.143667 1.46856 -4.19891e-19)
(0.155709 1.52549 0)
(-0.0116222 1.24384 0)
(-0.140365 1.0483 -4.03084e-19)
(-0.157199 1.15408 1.32697e-19)
(-0.0800768 1.18245 0)
(-0.0894557 0.969133 -3.08689e-19)
(-0.0837958 0.953181 6.05032e-19)
(1.04073 0.00989146 0)
(1.04647 0.00580985 -2.79695e-20)
(1.03939 0.0184442 -2.04451e-19)
(1.04817 0.0144096 0)
(1.05085 0.0137992 0)
(1.03516 0.00959471 -6.15623e-21)
(1.03111 0.0104446 3.34867e-19)
(1.03092 0.0144474 4.05382e-19)
(1.02613 0.0187332 0)
(1.02386 0.0195684 0)
(1.03512 0.0212914 2.05629e-19)
(1.02632 0.0251868 0)
(1.02592 0.0234362 0)
(-0.280963 2.27998 0)
(-0.390145 2.02685 -5.447e-20)
(-0.36515 2.17168 -1.48983e-19)
(-0.161104 1.27263 0)
(-0.386464 1.86882 -2.84322e-19)
(-0.388815 1.64573 1.06231e-19)
(-0.300401 1.30965 0)
(0.390884 1.69697 0)
(0.358754 1.27771 5.78968e-19)
(0.300794 1.33662 0)
(0.412228 1.27223 -7.60626e-19)
(0.458835 1.44539 0)
(0.438494 1.3839 3.55728e-19)
(1.0296 2.70355 -5.60097e-21)
(0.953989 2.41766 -3.68762e-19)
(0.897014 2.17875 4.17602e-19)
(0.840354 2.37576 1.33031e-19)
(0.844465 2.51793 0)
(0.912684 2.51132 0)
(0.912414 2.37767 0)
(0.892494 2.358 -5.06475e-19)
(0.692875 2.49365 -5.09527e-20)
(0.801463 2.48478 -2.18524e-20)
(0.813392 2.45664 1.67216e-20)
(0.689549 2.38538 0)
(0.793492 2.38427 0)
(0.753004 2.39424 -2.4286e-19)
(0.770412 2.50655 0)
(0.59803 1.0842 0)
(0.493506 0.939864 -6.22995e-20)
(0.554046 0.966664 -5.07807e-21)
(0.524118 1.0696 0)
(0.527394 1.02414 9.5904e-20)
(0.761932 0.859643 -3.03108e-21)
(0.767586 1.00017 0)
(0.743454 0.957628 -3.51182e-20)
(0.633579 1.02064 0)
(0.638882 0.93588 0)
(1.16532 2.77186 2.26075e-20)
(1.14409 2.83548 9.83908e-20)
(0.936285 2.36123 -2.39526e-19)
(0.902926 2.33814 2.21281e-20)
(1.12892 2.74599 0)
(1.08054 2.71701 -2.6416e-20)
(1.08782 2.49661 -1.06826e-19)
(0.983301 2.23632 -3.00573e-20)
(0.498249 1.37243 0)
(0.508364 1.08003 5.92239e-20)
(0.544103 1.14945 0)
(0.860524 0.215958 0)
(0.817284 0.168581 0)
(0.774157 0.15339 0)
(0.851449 0.222571 -3.56132e-19)
(0.791682 0.219518 2.18802e-19)
(0.936526 0.0511847 -2.0442e-19)
(0.952 0.099601 0)
(0.925398 0.105061 9.0782e-20)
(0.882246 0.0824754 3.70029e-19)
(0.866428 0.0456997 -2.28039e-19)
(1.16719 3.36801 -9.49557e-19)
(1.21442 3.28732 0)
(1.16576 3.39534 -1.87771e-18)
(0.652076 3.55553 1.61033e-18)
(0.879276 3.12138 3.35289e-19)
(0.522321 0.869617 2.83581e-19)
(0.44422 0.867723 0)
(0.349364 0.512341 -9.20483e-20)
(0.45159 0.689118 4.4471e-19)
(0.528959 0.480859 -1.2187e-19)
(0.507245 0.523763 1.42405e-19)
(0.648644 0.541308 2.96077e-19)
(0.678862 0.565369 0)
(0.635889 0.619858 0)
(0.589747 0.560838 0)
(0.95027 0.586121 -3.68373e-20)
(0.871634 0.532097 -2.29181e-19)
(0.898436 0.565929 1.24394e-19)
(0.930334 0.501411 -1.69956e-19)
(1.0328 0.471343 0)
(1.0433 0.558862 -1.63765e-20)
(0.831029 0.388086 -4.5969e-19)
(0.835934 0.372579 -5.36858e-19)
(0.785809 0.383537 3.602e-19)
(0.778978 0.352056 -4.00505e-19)
(0.835191 0.310331 -2.98159e-19)
(0.789957 0.305724 3.66422e-19)
(1.02651 0.00517378 -2.1706e-19)
(1.02609 0.00565894 4.44741e-19)
(1.02895 -0.000974013 2.62977e-19)
(1.03305 0.000430975 -3.24768e-19)
(1.03317 0.00813255 0)
(1.02973 0.00829042 -5.24353e-19)
(0.0293536 1.65358 -5.58692e-20)
(0.0404203 1.57049 0)
(0.0720161 1.69802 -4.59941e-19)
(0.0858212 1.68404 4.24483e-19)
(0.0813984 1.51333 -2.67074e-19)
(0.0738898 1.48373 0)
(-0.0621626 2.07054 0)
(-0.0472328 1.56579 1.57817e-19)
(-0.197811 1.56154 -1.43912e-19)
(-0.284066 1.85912 -4.06694e-20)
(-0.239732 2.27278 2.73619e-19)
(-0.182978 2.24633 -1.11929e-19)
(0.492682 1.38003 3.44367e-19)
(0.488108 1.38568 -3.69282e-19)
(0.434288 1.27154 3.74955e-19)
(0.429664 1.29196 -2.23191e-20)
(0.615997 1.28555 0)
(0.535488 1.3746 4.88793e-19)
(0.549891 1.38342 -4.75544e-19)
(0.4407 1.26011 -3.60965e-19)
(0.494944 1.21544 0)
(0.549731 1.18526 0)
(0.658415 2.45135 7.48993e-20)
(0.669148 2.47759 6.0649e-19)
(0.718046 2.49435 -4.17287e-19)
(0.623544 2.47699 -1.29095e-19)
(0.561218 2.57051 1.17928e-19)
(0.512336 2.5427 -3.44494e-19)
(0.968668 2.38058 -2.26262e-19)
(1.01022 2.40008 0)
(0.91209 2.15903 -2.92129e-19)
(1.04902 2.69754 0)
(1.05104 2.68455 0)
(0.622435 2.28202 1.85866e-19)
(1.04804 3.16914 4.34723e-19)
(0.91891 3.03828 -3.72334e-19)
(0.287928 0.938236 0)
(0.332523 0.802845 -1.78738e-19)
(0.493549 0.759531 -1.09341e-19)
(0.397301 2.02914 0)
(0.4694 2.78802 -2.33405e-19)
(0.428949 2.55268 0)
(0.683681 0.679383 -3.72497e-19)
(0.75628 0.673563 4.83449e-19)
(0.77491 0.62238 -4.7372e-19)
(0.664727 0.6513 -5.36511e-20)
(0.711683 0.600653 -2.20342e-19)
(1.00984 2.77448 -3.3053e-19)
(1.04381 2.82933 2.3089e-19)
(0.647956 2.16819 1.50495e-19)
(0.607847 1.72982 -1.33474e-19)
(0.706322 1.92025 4.76749e-20)
(0.994987 2.45796 -7.35843e-20)
(0.997382 2.45212 -1.06468e-19)
(0.67284 1.86177 -9.38145e-22)
(0.46396 1.35056 -5.12798e-20)
)
;

boundaryField
{
    wall-4
    {
        type            noSlip;
    }
    velocity-inlet-5
    {
        type            fixedValue;
        value           uniform (1 0 0);
    }
    velocity-inlet-6
    {
        type            fixedValue;
        value           uniform (0 3 0);
    }
    pressure-outlet-7
    {
        type            zeroGradient;
    }
    wall-8
    {
        type            noSlip;
    }
    frontAndBackPlanes
    {
        type            empty;
    }
}


// ************************************************************************* //
