/*--------------------------------*- C++ -*----------------------------------*\
| =========                 |                                                 |
| \\      /  F ield         | OpenFOAM: The Open Source CFD Toolbox           |
|  \\    /   O peration     | Version:  4.0                                   |
|   \\  /    A nd           | Web:      www.OpenFOAM.org                      |
|    \\/     M anipulation  |                                                 |
\*---------------------------------------------------------------------------*/
FoamFile
{
    version     2.0;
    format      ascii;
    class       volScalarField;
    location    "19";
    object      p;
}
// * * * * * * * * * * * * * * * * * * * * * * * * * * * * * * * * * * * * * //

dimensions      [0 2 -2 0 0 0 0];

internalField   nonuniform List<scalar> 
918
(
0.238924
0.922552
0.0101297
0.237808
-0.00119182
0.889671
-0.829476
0.418594
0.21892
-0.43916
-0.0332163
0.207809
0.750227
0.518198
-1.45328
0.00724829
0.373475
-0.707647
0.217624
-0.00160874
0.49549
0.2257
0.228689
0.219254
0.27823
0.50803
0.630959
0.00248473
-0.00139774
-0.00383135
0.00443751
-0.00601995
8.24486e-05
0.773283
0.824411
0.84708
0.188365
0.0179653
-0.677392
-0.75586
-0.741189
-0.881745
0.40617
0.4111
-0.476232
0.421417
0.437278
0.206582
0.218174
0.219023
0.220492
0.219289
0.220732
0.176551
-0.455435
-0.476005
-0.406817
-0.374732
-0.0291663
-0.0571832
-0.0874645
-0.0124439
-0.00720367
0.145541
0.204536
0.203387
0.213411
0.222891
0.862104
0.833971
0.860119
0.77396
0.790407
0.728145
0.700699
0.537577
0.559039
0.505256
0.494248
-1.89705
-2.87158
-0.850691
-0.59061
0.000331055
0.00975899
0.0123452
0.35974
0.368049
0.371356
0.383404
0.77895
-0.696012
-0.843262
0.217665
0.216309
0.225008
0.225645
0.221631
0.220727
0.00693484
0.0147744
-0.0114513
-0.00219895
-0.00504724
0.478522
0.473268
0.219785
0.216844
0.230451
0.253035
0.241447
-0.0113993
0.289151
0.31077
0.313618
0.490204
0.487983
0.495252
0.60434
0.56809
0.66815
0.691286
0.0134216
0.00381681
0.00201317
0.00220929
0.0014094
0.184418
0.177391
0.200803
0.191934
0.194012
-0.0661836
-0.201366
0.102325
0.12593
-0.58496
-0.652046
-0.763959
-0.778148
-0.899628
0.238897
0.395247
0.398169
-0.493476
-0.40915
-0.556711
-0.334863
-0.406707
0.197733
0.204249
0.199635
0.214079
0.208677
0.210638
0.222322
0.219422
0.221001
0.213436
0.309377
0.125852
0.0581461
-0.577548
-0.49406
-0.570303
-0.341561
-0.287584
-0.043556
-0.0557059
-0.0407904
-0.00978859
-0.24113
-0.128631
-0.184532
0.00238935
0.00335577
0.138548
0.129531
0.154704
0.161151
0.196166
0.197172
0.200657
0.198568
0.651258
0.673628
0.681301
0.655015
-3.88453
-6.71047
-0.256002
-0.112296
0.00282896
0.00279882
0.00204706
0.0046658
0.00274497
0.000981181
0.00662533
0.0078518
0.0125062
0.013205
0.344046
0.348572
0.701031
0.694576
0.690584
0.671697
0.205549
0.207621
0.213343
0.209217
0.0115726
0.0165894
0.0127674
0.439624
0.459294
0.45655
-0.0469966
-0.134789
0.035562
0.062034
0.331152
0.316166
0.3331
0.377195
0.415908
0.698735
0.717184
0.715346
0.72393
0.767888
0.784239
0.749685
0.166209
0.173133
0.169311
0.204657
0.20222
0.203149
0.196915
0.199473
0.196279
-0.355572
-0.742117
0.196008
0.208429
0.170026
0.178148
0.327153
0.401659
0.377215
0.386964
0.390817
-0.271308
-0.33698
0.000762657
-0.0186135
0.0870897
0.118587
0.102446
0.622514
0.583017
0.632991
0.606261
0.567628
0.593136
-0.694
-2.22623
-1.32561
0.253769
0.0584333
0.150241
0.00327541
-0.00356249
0.0026832
0.660198
0.738705
0.376721
0.5581
0.560147
0.455759
0.486839
0.541805
0.467832
0.50187
0.536684
0.516825
0.195652
0.196813
0.173722
0.473947
0.530524
-0.160508
-0.209411
-0.265244
-0.0816659
-0.0459424
-0.0692994
0.709994
0.596013
0.673895
0.216678
0.217334
0.0117307
0.0197031
0.221074
0.220921
0.00614372
0.00540467
0.130332
-1.16487
-0.167122
0.209456
0.200317
0.216785
-0.45255
0.0396398
-0.0674696
0.0634322
0.0732384
0.20712
0.155063
0.121887
0.00578538
0.0149169
-0.00199508
-0.519684
0.214342
0.212699
0.216393
0.217458
0.21812
0.0064119
0.0079772
0.00586486
0.000409781
0.00333945
0.000447063
0.182915
0.196799
-0.478076
0.216295
0.218599
0.218282
0.211338
0.216835
0.215174
0.0121051
0.00650913
0.00504375
-0.0600983
0.054038
0.38853
0.497681
0.341039
0.112009
-0.133288
0.283392
0.352727
0.249206
0.417349
0.380837
0.405826
-0.107174
-0.253454
-0.0989837
-0.155579
0.207265
0.205876
0.198674
0.19624
0.211773
0.209972
0.214225
0.211314
0.214081
0.21558
-0.467521
-0.382518
-0.439249
-0.464872
-0.00532154
0.282756
-0.122109
0.0179876
-0.095262
-0.0389237
-0.0192133
-0.110789
-0.130716
-0.0836864
0.0456702
0.0602724
-0.0105566
0.064076
0.0109038
-0.0698448
0.013563
-0.0263538
0.201614
0.198384
0.206734
0.213515
0.162645
0.164417
0.137276
0.153025
0.141893
0.0859666
0.118994
0.0972076
0.00663539
0.0069774
0.00562937
0.0184826
0.0170381
0.007726
0.00785349
0.0142411
0.00800535
0.00649073
0.00189703
0.00971796
-0.480005
-0.593298
0.677268
0.673324
-0.110286
0.20359
0.209957
0.206822
0.2112
0.214445
0.215308
0.213221
0.209576
0.197727
0.199898
0.196098
0.196142
-0.422273
-0.556416
-0.375853
-0.437114
-0.175714
0.322002
0.0665489
0.00739474
0.00333528
0.213311
0.603649
0.414439
0.450188
0.477253
-0.664498
-0.261342
-0.593851
0.0230645
-0.158525
0.385994
0.43878
0.462601
0.408246
0.356698
-0.428757
0.211139
-0.351078
-0.3102
-0.122533
-0.220262
0.434806
0.365264
0.372041
0.396503
0.421684
0.372079
0.350574
0.349868
0.385361
0.389544
0.187233
-0.0277899
-0.0737777
-0.109245
0.353597
0.227035
0.28316
0.201372
0.201737
0.204975
0.203434
0.18713
0.194447
0.190441
0.194246
0.197654
0.207519
0.207284
0.202948
0.205369
-0.365355
-0.354663
-0.426004
-0.452429
-0.459375
-0.511536
-0.408602
-0.362242
-0.503327
-0.0186523
0.0182007
-0.303258
-0.390383
-0.361729
-0.351827
-0.141693
-0.0835732
-0.393634
-0.0845961
-0.24846
-0.288516
-0.0597431
-0.0652321
-0.0929813
-0.13728
-0.215368
-0.128142
-0.0097829
-0.130765
-0.110617
0.0112596
-0.00570428
-0.0132883
0.000545025
-0.266294
-0.263327
-0.22616
-0.37481
0.0138257
0.0165463
0.0181279
0.0188108
0.0247209
0.0244517
0.195076
0.195557
0.194707
0.209556
0.220839
0.23596
0.203718
0.181522
0.173596
0.175397
0.15234
0.160043
0.157319
0.168916
0.186111
0.193843
0.19238
0.195096
0.179734
0.181017
0.17
0.17364
0.153374
0.136162
0.126646
0.0102608
0.00745244
0.00856063
0.00830225
0.00851933
0.00877304
0.0282299
0.023317
0.0264563
0.0213094
0.0133407
0.0149399
0.0116641
-0.391266
-0.323246
-0.503192
-0.536872
-0.602918
0.587363
0.697526
0.537917
0.289303
0.301281
0.52437
0.646318
0.269537
0.458586
0.515871
0.196091
0.491052
0.208003
0.207465
0.205492
0.204698
0.205928
-0.325831
-0.225058
-0.214872
-0.162421
-0.0445238
0.069083
-0.0142563
-0.163373
-0.0152501
0.0034236
0.316622
0.330182
0.27459
0.301445
0.30122
0.128632
0.202242
0.258127
0.213225
0.25437
0.276362
0.240982
0.268429
0.215347
0.175327
0.17447
0.123296
0.141755
0.119332
0.102635
0.197309
0.177705
0.186541
0.179806
0.198224
0.226472
0.220912
0.243968
0.257703
0.18591
0.148861
0.156806
0.183382
0.147872
0.159643
0.173431
-0.10325
-0.199575
-0.118312
-0.417274
-0.322571
-0.337733
-0.384215
-0.347925
-0.0604042
-0.769939
-0.732573
-1.37164
0.149378
0.63486
0.386144
0.356485
0.419428
0.394969
0.39648
0.431758
0.438475
0.342962
0.357185
0.360933
0.315166
0.340029
0.371026
0.366997
0.192292
0.0778925
0.0650304
0.0342557
-0.0847542
-0.0552868
0.144066
0.0672258
-0.0021773
0.0049516
0.162964
0.0589558
0.120967
0.157209
0.0906139
0.0492651
0.243066
0.312575
0.30224
0.275094
0.19085
0.203617
0.227343
0.263794
0.290796
0.323996
0.196089
0.200465
0.201494
0.19953
0.196817
0.199332
0.199096
0.201793
0.202754
0.20542
0.20455
-0.194569
-0.242002
-0.31814
-0.24745
-0.579532
-0.583689
-0.51994
-0.485713
-0.3302
-0.40594
-0.506509
-0.417526
-0.34358
-0.312618
-0.36854
-0.343719
-0.288652
-0.391757
-0.0509224
0.09299
0.174727
0.066
-0.0896201
-0.074605
-0.056394
-0.234134
-0.0971415
-0.0979045
-0.161052
-0.259613
-0.0225972
-0.0227341
-0.0270128
-0.0164702
-0.0438463
-0.0163623
0.0100349
0.00587809
0.00127169
0.00540595
0.0103051
0.185076
0.178002
0.176664
0.173014
0.172707
0.181641
0.186454
0.18864
0.193842
0.194826
0.186695
0.19126
0.194026
0.0195343
0.015618
0.0194029
0.00744851
0.0113131
0.013921
0.00924163
-0.220906
-0.24349
-0.23269
-0.30659
-0.438638
-0.38131
0.148704
0.118555
0.162422
0.361814
0.217946
0.135541
0.205165
0.312508
-0.0726859
0.136386
-0.0420978
0.56791
0.444802
0.588105
0.211991
-0.0895384
0.0508298
0.107773
-0.0856199
-0.014544
0.00517657
-0.102978
-0.069821
-0.0408825
0.0563813
-0.0578396
-0.086198
-0.329169
-0.146112
-0.0203547
-0.0425766
0.0875145
0.149965
-0.0710547
-0.150001
-0.196256
0.305235
0.324826
0.341794
0.312354
0.336648
0.262034
0.254148
0.271982
0.282867
0.276267
-1.10576
-0.818845
-1.75765
-1.06847
-0.628755
0.175825
0.133834
0.419627
0.316485
0.399451
0.383091
0.345566
0.307736
0.314472
0.352311
0.0586382
0.163961
0.13959
0.145376
0.0521642
-0.011293
0.277391
0.27223
0.306705
0.330927
0.30105
0.332526
0.193129
0.192234
0.193542
0.189831
0.189342
0.189963
-0.489582
-0.451823
-0.456452
-0.464035
-0.507408
-0.496814
0.026084
0.00597476
0.0066575
0.0091253
0.0282872
0.0275565
-0.175875
-0.236611
-0.294573
-0.285188
-0.327202
-0.390908
-0.408421
-0.305585
-0.223151
-0.232739
0.0845866
0.338358
0.157694
0.339165
0.195089
0.244348
0.165739
0.156431
0.192165
0.0561319
0.129706
-0.145088
-0.633111
-0.54484
0.432987
0.453617
0.234728
0.0363015
-0.184344
0.0162628
0.224754
0.165841
0.205413
0.272951
0.266082
-0.340368
-0.259734
-0.0418737
0.187357
-0.101279
-0.109132
-0.112733
0.0453093
-0.0197159
)
;

boundaryField
{
    wall-4
    {
        type            zeroGradient;
    }
    velocity-inlet-5
    {
        type            zeroGradient;
    }
    velocity-inlet-6
    {
        type            zeroGradient;
    }
    pressure-outlet-7
    {
        type            fixedValue;
        value           uniform 0;
    }
    wall-8
    {
        type            zeroGradient;
    }
    frontAndBackPlanes
    {
        type            empty;
    }
}


// ************************************************************************* //
