/*--------------------------------*- C++ -*----------------------------------*\
| =========                 |                                                 |
| \\      /  F ield         | OpenFOAM: The Open Source CFD Toolbox           |
|  \\    /   O peration     | Version:  4.0                                   |
|   \\  /    A nd           | Web:      www.OpenFOAM.org                      |
|    \\/     M anipulation  |                                                 |
\*---------------------------------------------------------------------------*/
FoamFile
{
    version     2.0;
    format      ascii;
    class       volVectorField;
    location    "19";
    object      U;
}
// * * * * * * * * * * * * * * * * * * * * * * * * * * * * * * * * * * * * * //

dimensions      [0 1 -1 0 0 0 0];

internalField   nonuniform List<vector> 
918
(
(0.985144 -0.000534567 0)
(0.00500363 2.96626 0)
(-0.0124641 1.59689 0)
(0.979694 0.00215572 0)
(-0.00400542 1.56801 5.21589e-21)
(-0.00703125 2.94878 -1.88983e-18)
(0.856793 1.20366 7.294e-19)
(0.43664 0.199229 -9.17029e-21)
(0.999908 -0.000323683 0)
(0.0434992 0.794435 0)
(-0.0255401 1.18008 0)
(0.779187 -0.00959976 0)
(0.0110854 2.93037 0)
(0.00163251 2.79463 0)
(-0.0179163 3.16893 1.07877e-18)
(-0.00432264 1.46901 -7.95652e-21)
(0.559857 0.0926262 5.76669e-19)
(0.194207 1.18154 6.4051e-19)
(0.96293 0.0050747 0)
(-0.000894276 1.34199 0)
(0.145346 0.255607 -4.9026e-19)
(1.00203 -0.00500456 0)
(1.00025 -0.00972625 0)
(0.975796 -0.00645711 0)
(0.693301 -0.0345647 0)
(0.0176398 2.63172 0)
(-0.0151303 2.91018 6.54889e-19)
(-0.024448 1.61711 0)
(-0.0271442 1.74292 0)
(-0.0245721 1.61192 0)
(-0.00569207 1.836 0)
(-0.0013102 1.59357 -4.12617e-21)
(-0.00453238 1.47764 0)
(-0.0206308 2.98758 -6.61752e-23)
(-0.0167059 3.00531 1.46906e-18)
(0.00210551 3.00022 0)
(0.869263 -0.00881709 0)
(0.391643 0.927371 -2.45509e-20)
(0.840995 1.21883 -1.01629e-18)
(0.989091 1.05898 9.56343e-19)
(0.707261 1.31365 -1.69403e-19)
(0.702846 1.29727 9.48867e-19)
(0.465642 0.278025 8.94721e-21)
(0.45717 0.181469 0)
(1.16957 0.565605 0)
(0.437931 0.297552 4.20723e-20)
(0.398717 0.201593 -4.36573e-20)
(0.919514 -0.00756812 0)
(1.00034 7.12659e-05 0)
(0.999913 0.000310381 0)
(1.00344 -0.0077669 0)
(1.00094 -0.00106871 0)
(1.00018 -1.52961e-05 0)
(0.0124765 1.73558 -3.38603e-19)
(0.0534993 0.915038 0)
(0.0755106 0.868644 0)
(-0.00685974 0.861924 0)
(-0.00251674 0.776189 0)
(0.0322045 1.55127 0)
(-0.0376322 1.27731 0)
(-0.0454053 1.08976 0)
(-0.021845 1.36995 0)
(-0.0139301 1.23974 0)
(0.85675 -0.00127156 0)
(0.872374 0.00952702 0)
(0.790515 -0.00432423 0)
(0.865875 0.0152926 0)
(0.76381 -0.0104716 0)
(0.0147045 3.00039 6.92208e-19)
(0.0115328 3.00784 0)
(0.0061454 3.00286 0)
(0.0135383 2.99731 7.7237e-24)
(0.00800489 2.95847 -1.02879e-18)
(0.0144849 2.98211 0)
(0.010764 2.90366 0)
(0.025095 2.9305 1.39131e-24)
(0.00414612 2.8249 0)
(0.0313368 2.91554 0)
(-0.00659729 2.74382 0)
(0.311039 3.56883 0)
(-0.132513 3.65114 0)
(0.140925 3.25964 -1.00396e-18)
(-0.010825 2.9917 0)
(-0.0178277 1.81283 0)
(0.000325909 1.62241 7.84886e-21)
(-0.00341498 1.47737 -1.13481e-20)
(0.608801 0.152132 -1.98307e-19)
(0.553612 0.0515595 -1.94531e-19)
(0.591185 0.190276 -5.99424e-19)
(0.53752 0.120757 -3.99288e-19)
(0.224608 0.90545 0)
(0.281233 1.33703 -6.59089e-19)
(0.391761 1.29688 1.08646e-18)
(0.987576 0.0084403 0)
(0.94287 0.00600873 0)
(1.0003 0.000542589 0)
(1.00289 0.00926519 0)
(1.00306 0.0084278 -1.1243e-18)
(0.991982 0.00972394 8.48942e-19)
(-0.0138311 1.49814 0)
(-0.00274874 1.32781 0)
(-0.033543 1.62149 0)
(-0.0238253 1.53436 0)
(-0.00436601 1.38007 0)
(0.217159 0.270914 1.51188e-19)
(0.264965 0.248974 0)
(0.993588 -0.00824522 0)
(0.954423 -0.00648894 0)
(0.836398 0.0224104 0)
(0.80337 0.0347742 0)
(0.743287 -0.0248811 0)
(1.00048 -0.00491187 0)
(0.747131 0.0509316 0)
(0.606894 -0.0144922 7.73386e-19)
(-0.0356779 2.86596 3.4039e-19)
(0.0436158 2.90766 0)
(0.0567293 2.88308 0)
(-0.0054968 2.69639 0)
(-0.013111 2.98533 6.02333e-19)
(-0.0182858 2.8956 0)
(-0.0153283 2.98816 -1.90465e-18)
(-0.0134654 2.92525 6.5754e-19)
(-0.0234517 1.81338 0)
(-0.018612 1.81038 0)
(-0.00108736 1.61848 -1.04946e-22)
(-0.000880211 1.59134 0)
(-0.00590494 1.47587 0)
(0.933981 -0.00566373 0)
(0.852773 -0.00892435 0)
(0.863042 0.00887424 0)
(0.948063 -0.00679424 0)
(0.884406 -0.0076329 0)
(0.505288 1.12308 2.01465e-20)
(0.557422 1.1788 0)
(0.351372 0.865125 5.33083e-21)
(0.294658 0.727649 0)
(0.949404 1.09432 -2.75914e-19)
(1.06212 0.894677 5.6354e-19)
(0.396739 1.39489 0)
(0.558333 1.3742 0)
(0.558889 1.32546 0)
(0.0937616 0.13742 -1.3098e-19)
(0.503717 0.262505 0)
(0.488749 0.164025 1.14232e-19)
(1.03057 0.945851 0)
(1.09545 0.787455 0)
(1.12169 0.730194 -4.88489e-19)
(1.14933 0.624294 0)
(1.20103 0.405917 5.87153e-20)
(0.956824 -0.0086198 0)
(0.962018 -0.0100051 0)
(0.900973 -0.00805402 0)
(0.984247 -0.00910768 0)
(0.974618 -0.00941442 0)
(0.936811 -0.00620198 0)
(1.00016 0.00227592 0)
(1.00088 0.00138675 0)
(0.999907 0.000857327 0)
(-0.0329786 1.99474 1.94837e-19)
(0.103696 1.68994 0)
(-0.0258286 1.97225 2.36384e-19)
(0.0100859 1.74494 -1.15024e-19)
(0.117284 1.18295 -5.31195e-19)
(0.0693089 1.03267 0)
(0.129515 1.02141 0)
(-0.0391903 0.902338 0)
(-0.0423754 0.844251 0)
(0.0633321 1.72428 8.65997e-23)
(-0.0012648 1.54662 0)
(0.0362516 1.72235 2.20399e-20)
(-0.000310332 1.54812 -2.48145e-20)
(-0.0581175 1.01432 0)
(-0.0581372 1.15615 0)
(-0.0524301 0.967695 0)
(-0.0144067 1.43586 0)
(-0.0077308 1.27508 0)
(0.942841 0.0152463 0)
(0.879512 0.000674148 0)
(0.923995 0.00865059 0)
(0.845531 -0.00284511 0)
(0.809249 0.0042438 0)
(0.901448 0.0114748 0)
(0.886167 0.00665332 0)
(0.792527 -0.000372206 0)
(0.00597831 3.0649 -6.09894e-21)
(0.0164378 3.05801 0)
(0.0147414 2.96917 0)
(0.00857321 2.87636 0)
(0.928738 3.98847 0)
(1.24431 3.31722 1.01368e-18)
(0.0717414 3.08374 0)
(-0.0260861 2.91134 0)
(-0.0223438 1.80077 0)
(-0.0234587 1.80771 0)
(-0.0205554 1.80296 0)
(-0.00991676 1.824 4.61867e-21)
(-0.0163755 1.82203 0)
(-0.0137651 1.81986 0)
(-0.00424498 1.49789 -5.00779e-21)
(0.00102363 1.66971 6.27597e-21)
(0.00133133 1.64092 1.16437e-20)
(-0.00540774 1.47973 0)
(0.633044 0.120841 2.92169e-19)
(0.568248 0.0243758 -2.843e-19)
(0.255955 1.51654 0)
(0.268924 0.660929 -2.17516e-19)
(0.202054 1.62851 -7.47304e-19)
(0.220486 1.17431 7.49727e-19)
(0.90439 0.00733222 0)
(0.968053 0.0107494 0)
(0.974972 0.0104667 0)
(0.924937 0.00669749 0)
(-0.0135144 1.47271 0)
(-0.0138619 1.48804 0)
(-0.00562067 1.29963 0)
(0.396496 0.305595 3.89794e-19)
(0.336654 0.287356 -4.75821e-19)
(0.344191 0.223092 0)
(1.12267 0.0836775 -2.6816e-21)
(1.10818 0.0382284 0)
(1.03628 0.0374294 0)
(0.942538 0.00594283 0)
(0.656999 0.0919111 0)
(0.687593 0.0655919 -1.24512e-18)
(0.584274 0.00846324 4.75786e-19)
(0.00992738 2.98252 4.29631e-19)
(-0.0317862 2.86815 4.94328e-20)
(0.00378046 3.05017 -1.31664e-20)
(0.0199834 3.04354 4.73466e-19)
(-0.01503 2.99655 2.18524e-20)
(-0.0129657 2.94942 -8.84847e-23)
(-0.017273 3.01202 -4.14098e-19)
(0.0147439 3.02417 2.99251e-19)
(0.00725762 3.03668 -4.67721e-19)
(0.923686 0.0034217 0)
(0.930758 -0.00128448 0)
(0.840684 -0.00655048 0)
(0.957327 0.0122235 0)
(0.94375 0.0133508 0)
(0.883029 0.00802208 0)
(0.916674 0.0136656 0)
(0.926893 0.0145301 0)
(0.836693 0.00792819 0)
(0.71411 1.40927 3.19245e-19)
(0.750155 1.52119 0)
(0.222166 0.37099 2.79019e-20)
(0.176124 0.578127 2.23888e-19)
(0.263011 0.686531 -1.23304e-19)
(0.225142 0.57248 2.27856e-19)
(0.283877 0.685248 7.49129e-19)
(0.107077 0.174057 2.17925e-19)
(0.563756 0.221641 4.29929e-19)
(0.532911 0.243505 1.06502e-19)
(0.513025 0.14613 2.16694e-19)
(1.18976 0.462622 2.87611e-19)
(1.20614 0.256785 3.01206e-19)
(-0.0173445 1.91994 2.75887e-20)
(-0.0244942 1.67056 0)
(0.987293 0.0273524 0)
(0.955646 0.0180439 0)
(0.903886 -0.00142873 0)
(0.0109722 3.0745 0)
(0.0199653 2.94419 8.14484e-19)
(0.0165413 2.95641 0)
(0.00615254 2.85072 -8.0779e-19)
(0.0061843 3.0919 1.93187e-19)
(0.00732387 3.08251 0)
(0.784043 1.82705 -2.36892e-19)
(1.2512 2.51257 6.50823e-19)
(0.766946 1.96908 -1.48751e-18)
(0.0210884 2.98431 -3.15889e-19)
(0.0373822 3.00751 0)
(-0.0322076 2.88211 0)
(0.0205547 1.6942 5.49462e-21)
(0.00594478 1.69758 -9.7795e-22)
(0.00610871 1.52487 -2.97582e-21)
(0.274996 1.32268 6.90054e-19)
(0.231935 0.441441 -4.7393e-19)
(0.00844277 1.94929 4.85189e-19)
(0.121476 1.85107 -6.17034e-19)
(0.177138 1.46895 9.69948e-20)
(0.00463899 3.11786 -1.08931e-18)
(0.0164937 3.11811 1.16676e-18)
(-0.00872093 2.98086 5.24862e-19)
(-0.00276103 2.9777 -4.66368e-19)
(-0.0216462 2.88234 -5.34555e-19)
(0.00881219 3.09861 -1.41534e-18)
(0.00206427 3.10668 1.38228e-18)
(0.219607 0.601574 0)
(0.160097 0.584317 -4.32489e-19)
(0.125923 0.198324 1.91154e-19)
(0.319227 0.810887 6.54664e-19)
(0.170998 0.21928 -1.0029e-18)
(1.20437 0.170495 -5.32284e-20)
(1.20619 0.308728 0)
(1.1924 0.118705 1.17639e-19)
(0.0394716 1.76176 1.31822e-21)
(-0.00772497 1.81952 0)
(0.00311531 1.59649 0)
(0.323415 1.20284 -2.52509e-19)
(0.349157 1.02114 -5.32486e-19)
(0.193264 0.314546 9.1727e-19)
(1.00583 -0.0110917 0)
(1.00761 -0.00765702 2.05701e-19)
(-0.0243978 1.80092 0)
(-0.0336206 1.80837 0)
(1.00216 0.00339383 1.58825e-21)
(1.00381 0.00943645 4.2244e-19)
(-0.0097819 1.82899 -6.22474e-21)
(-0.00644143 1.82813 0)
(0.0400335 3.18432 1.21593e-19)
(0.400367 3.50416 0)
(1.11259 0.644651 5.93592e-20)
(1.01264 0.0126748 -2.17306e-21)
(1.02144 -0.0106024 0)
(1.0017 1.91121e-05 -5.21551e-23)
(0.117128 1.13401 0)
(0.143069 2.65077 0)
(-0.174565 1.49539 0)
(-0.134948 2.21445 1.82843e-20)
(-0.0788067 1.98717 5.22209e-20)
(1.00538 0.00985576 2.70209e-21)
(1.04695 0.0143223 0)
(1.07163 0.0293102 0)
(-0.0247998 1.81063 0)
(-0.014512 1.85363 0)
(-0.0278696 1.78304 0)
(0.302355 1.44045 -4.41024e-19)
(1.01111 -0.00957043 0)
(1.0095 -0.0154246 0)
(1.00233 0.000413749 2.59364e-19)
(1.00551 -0.00497188 -3.09524e-19)
(1.00122 -0.00108495 0)
(-0.0282344 1.80474 0)
(-0.0257415 1.7984 0)
(-0.0259328 1.80232 0)
(-0.0284359 1.78305 0)
(-0.028508 1.78499 0)
(-0.0291903 1.78559 0)
(1.03011 -0.0155638 0)
(1.02076 0.0178236 -8.46022e-22)
(0.785848 1.26735 5.17204e-19)
(1.00287 0.000224814 -2.62485e-19)
(1.00322 0.00565684 3.13457e-19)
(1.0013 0.00219332 0)
(1.01295 0.0104061 2.55119e-19)
(1.00815 0.00830691 -3.16708e-19)
(1.00864 0.0142512 0)
(-0.0133442 1.85279 0)
(-0.00959002 1.84037 7.83449e-21)
(-0.00709867 1.83964 -5.18296e-21)
(1.18677 0.252207 -4.81911e-20)
(1.12577 0.0887823 0)
(0.0542369 3.07825 -5.32259e-19)
(0.068765 2.85106 -4.25713e-20)
(0.148561 3.19811 8.28492e-19)
(0.142641 3.22701 -7.34404e-21)
(0.141041 3.24393 0)
(0.0215239 3.13856 1.16385e-19)
(0.0811657 3.16275 5.19453e-19)
(0.0740142 3.19001 -2.2473e-19)
(0.0253318 3.1288 0)
(0.671256 0.32787 0)
(0.620007 0.370907 0)
(1.08578 0.671702 -2.32114e-19)
(1.08236 0.812083 3.63991e-19)
(1.14509 0.56199 0)
(1.17589 0.506995 0)
(1.01573 0.0131279 -4.71135e-19)
(1.01406 0.0138823 5.8896e-19)
(1.02506 -0.0101589 0)
(1.02285 -0.0119583 0)
(1.0066 0.00290121 0)
(1.01033 0.00351316 0)
(1.00498 0.00166037 0)
(1.00961 0.00559758 0)
(1.00828 0.00603344 0)
(1.00477 0.0049607 0)
(0.134875 1.13059 0)
(0.0406922 0.957957 0)
(0.209774 1.19492 0)
(0.160283 1.22574 0)
(0.143981 2.6643 0)
(0.195337 2.67742 -2.09724e-19)
(0.0596859 2.75394 0)
(0.00158164 2.72069 -1.94683e-20)
(-0.164553 2.5962 1.30236e-19)
(-0.1411 1.52376 0)
(-0.111866 1.56737 0)
(-0.202701 1.43675 0)
(-0.171968 1.32335 0)
(-0.352629 2.04144 6.05231e-20)
(-0.111456 2.05462 2.73924e-20)
(-0.125011 2.20367 1.2992e-20)
(-0.0779548 2.12258 0)
(-0.0744111 1.98518 -9.98165e-20)
(-0.054873 1.95613 -2.48882e-20)
(-0.355115 2.0215 -6.18102e-20)
(-0.191572 2.00254 -3.58935e-20)
(-0.207756 2.11921 -1.70178e-20)
(1.01445 0.0205183 4.67147e-19)
(1.0129 0.00506263 -5.74365e-19)
(1.00714 0.0208372 -4.8684e-19)
(0.99231 0.0135123 6.15833e-19)
(1.04702 0.0156708 0)
(1.0343 -0.00193252 0)
(1.06858 0.0388749 0)
(1.05388 0.0220782 0)
(1.05381 0.014894 0)
(1.10905 0.0791315 0)
(1.08239 0.0476188 0)
(1.08682 0.0380601 0)
(-0.0151462 1.83195 -1.26562e-21)
(-0.0247148 1.82295 0)
(-0.0188056 1.82332 0)
(-0.0236023 1.87029 1.12159e-20)
(-0.021939 1.87451 -3.54093e-22)
(-0.0359667 1.81433 9.19992e-21)
(-0.0323443 1.80825 -9.29765e-21)
(-0.034248 1.79503 0)
(-0.0323801 1.79928 0)
(-0.032142 1.7994 0)
(-0.0341045 1.77345 0)
(-0.0230138 1.74687 0)
(0.378515 1.47085 8.38711e-19)
(0.399605 1.47501 3.30539e-19)
(0.582939 2.41411 -1.51953e-19)
(0.404613 2.51276 4.37314e-19)
(0.353754 2.07381 -2.04957e-20)
(1.02096 -0.00803606 0)
(1.01514 -0.00974236 0)
(1.01517 -0.0157879 0)
(1.00726 -0.000983775 0)
(1.00467 -0.00157707 0)
(1.00744 -0.00471858 0)
(1.00952 -0.00401417 0)
(1.01356 -0.00433975 0)
(1.02267 0.0176922 4.49643e-19)
(1.01706 0.0168391 -5.75227e-19)
(1.0232 0.0216714 -4.58664e-19)
(1.01732 0.0216143 5.7525e-19)
(0.760908 1.31252 0)
(0.689663 1.37219 6.12772e-19)
(0.859231 1.20486 3.53384e-19)
(0.901346 1.16148 -4.69799e-19)
(1.14581 2.61299 -5.17793e-19)
(0.834845 0.112104 3.01086e-19)
(1.12521 0.0984117 0)
(1.17169 0.176878 4.37962e-20)
(1.15938 0.15659 1.97242e-21)
(0.977234 0.122831 0)
(0.150335 2.9678 1.36527e-19)
(0.127068 2.87398 -6.82102e-19)
(0.0397102 2.35338 4.94991e-19)
(0.105212 0.109152 -2.07632e-19)
(0.344744 3.43234 -4.37804e-19)
(0.199641 3.32308 0)
(0.240784 3.36841 5.70161e-19)
(0.257009 3.04166 -7.64132e-19)
(0.351132 3.20125 0)
(0.00662707 3.12078 2.71246e-20)
(0.0178315 3.12958 -3.44741e-19)
(0.0154596 3.12546 5.07409e-19)
(0.0377681 3.14018 0)
(0.0364153 3.15181 0)
(1.21103 2.61639 0)
(0.505122 0.850649 -2.38723e-19)
(1.01505 0.992401 -1.94592e-19)
(0.953354 1.05092 0)
(0.795795 0.951096 4.95237e-20)
(1.0357 0.862437 3.09493e-20)
(0.406484 0.471846 -5.57603e-19)
(0.705799 0.336577 -2.29892e-20)
(0.690935 0.280874 2.29494e-19)
(0.626324 0.408499 1.83435e-20)
(0.5648 0.400644 -7.55592e-19)
(0.683983 0.356031 0)
(0.71946 0.418822 3.69379e-19)
(0.71645 0.415655 0)
(0.659111 0.382803 0)
(0.640405 0.326799 0)
(0.751956 0.589233 1.40735e-19)
(1.18596 0.268881 2.38261e-20)
(1.18195 0.401878 0)
(1.19292 0.356795 0)
(0.762429 0.211474 3.46164e-19)
(0.809126 0.511007 -1.91242e-19)
(0.733021 0.490301 3.12516e-19)
(0.912316 0.411706 -2.95744e-19)
(1.01969 0.0144773 3.09648e-19)
(1.0174 0.0139509 -3.18005e-19)
(1.01418 0.0160645 0)
(1.03162 -0.0135566 0)
(1.02827 -0.0108236 -2.87288e-19)
(1.02446 -0.0163868 2.84268e-19)
(1.02804 0.00696055 0)
(1.02546 0.0150076 0)
(1.01137 0.00452024 0)
(1.01435 0.00891339 0)
(1.01545 0.00410524 0)
(1.0136 0.00202153 0)
(-0.0540972 1.02565 0)
(-0.102799 1.02595 0)
(0.311789 1.21186 4.79913e-19)
(0.29343 1.44284 2.60209e-19)
(0.208717 1.35848 5.80096e-19)
(0.214159 1.36977 -9.19589e-19)
(0.341677 1.32696 0)
(0.365012 1.66866 3.58965e-19)
(0.341968 1.71038 0)
(0.362533 2.02657 2.97731e-20)
(0.35811 2.38797 2.16991e-19)
(0.423176 1.46637 -3.18256e-19)
(0.314211 1.41603 1.9278e-19)
(0.35947 1.32692 -1.59011e-19)
(0.329528 1.36377 3.1346e-19)
(0.287161 1.63261 0)
(0.334034 1.62826 -2.03865e-19)
(-0.282863 2.47442 1.987e-19)
(-0.158005 2.6579 0)
(-0.0514748 2.58533 -3.27358e-19)
(-0.143701 2.60477 0)
(-0.100715 2.72896 1.75008e-20)
(-0.121886 2.69721 0)
(-0.329742 1.67796 1.17078e-19)
(-0.42028 1.78221 0)
(-0.319764 1.5123 0)
(-0.300247 1.53332 -1.3205e-19)
(-0.196143 2.35548 -9.30313e-20)
(-0.161724 2.55978 -1.69022e-19)
(-0.138862 2.43888 -1.00078e-21)
(-0.207717 1.89483 1.16031e-20)
(-0.271219 1.88217 -1.72176e-20)
(-0.0922748 1.61874 0)
(-0.0602209 1.64333 0)
(-0.440961 1.89365 -3.62005e-19)
(-0.364693 1.53898 -3.54592e-19)
(-0.402398 1.75911 4.42452e-19)
(-0.320453 1.81844 0)
(-0.0422109 1.84805 -3.86435e-20)
(-0.0419495 1.86799 1.54618e-20)
(-0.0516369 1.87577 -5.22367e-21)
(-0.168471 1.8557 -1.40609e-20)
(-0.0851053 1.91704 -9.28466e-21)
(-0.0998576 1.94198 5.81636e-20)
(1.02112 0.0210761 -3.03604e-19)
(1.02082 0.0167637 3.05364e-19)
(1.01587 0.0151007 0)
(1.0021 0.0463126 4.42683e-19)
(0.993366 0.033535 -5.14077e-19)
(0.966567 0.0219663 5.93921e-19)
(1.00182 0.0797765 -5.78356e-20)
(1.03249 -0.0146931 0)
(1.03595 -0.000533826 2.56843e-19)
(1.02716 -0.0176557 -2.61865e-19)
(1.05133 0.0425748 -1.43225e-20)
(1.05232 0.029239 1.27406e-19)
(1.04883 0.0492976 0)
(1.04021 0.0429749 -4.73627e-20)
(1.03505 0.0274373 0)
(1.03016 0.0196776 0)
(1.03298 0.00967086 0)
(1.03004 0.0143695 0)
(1.04239 0.0260376 9.77671e-20)
(1.04447 0.0193255 -2.21788e-19)
(1.04372 0.0309314 -9.99414e-20)
(1.04144 0.0301054 -1.14888e-19)
(1.04745 0.0555973 2.09192e-19)
(1.07319 0.050125 0)
(1.07354 0.0943459 0)
(-0.0363224 1.84744 -1.25004e-20)
(-0.0262845 1.82729 -1.31986e-21)
(-0.0298489 1.83085 0)
(-0.0221136 1.84588 1.25488e-20)
(-0.0175709 1.83523 2.47736e-21)
(-0.0173607 1.84141 -2.32618e-21)
(-0.0493325 1.94271 1.87922e-20)
(-0.0583422 1.89301 -1.96825e-21)
(-0.0700604 1.90376 9.91787e-21)
(-0.0359868 1.90506 -1.12304e-20)
(-0.0372089 1.9123 1.38591e-20)
(-0.0433231 1.80462 4.71289e-22)
(-0.0452333 1.81795 1.69405e-20)
(0.398692 1.41047 -4.12789e-19)
(0.357797 1.40189 -3.78232e-19)
(0.646766 1.41242 -5.90606e-19)
(0.51999 1.47225 -3.18553e-19)
(0.55746 1.44789 0)
(0.58432 2.38635 1.30348e-19)
(0.652695 2.37374 2.28221e-19)
(0.420982 2.47798 8.7759e-20)
(0.425803 2.54683 -1.53295e-19)
(0.53133 2.51206 2.90557e-19)
(0.537683 2.42546 0)
(0.510139 2.45851 -3.74918e-19)
(0.276768 2.56893 6.39192e-19)
(0.383493 2.5167 -7.20529e-20)
(0.30115 2.61985 -1.00023e-18)
(0.919165 2.3771 2.08918e-19)
(0.822003 2.36271 0)
(1.01082 0.000262331 1.03872e-20)
(1.01614 -0.00520419 -8.60955e-21)
(1.01681 -0.00420315 -1.52669e-19)
(1.01525 -0.000317508 1.53862e-19)
(1.01242 0.000928855 0)
(0.628086 1.25468 0)
(0.628959 1.16685 0)
(0.730934 1.08612 0)
(0.620042 1.12976 0)
(1.17586 2.62975 5.84409e-20)
(1.06093 2.36062 0)
(0.848833 2.22928 -1.42309e-21)
(0.833361 2.49088 0)
(0.927648 2.57069 1.02552e-20)
(0.965463 2.51837 -6.86715e-21)
(0.840853 0.145033 0)
(0.813062 0.150332 8.61309e-20)
(0.925797 0.12777 4.4271e-19)
(0.864969 0.118691 -1.77545e-19)
(0.855933 0.069198 -5.35255e-19)
(1.02841 0.209644 -2.67015e-19)
(0.953429 0.277154 -1.58207e-20)
(0.891581 0.273769 4.05001e-19)
(0.96412 0.197291 3.03006e-19)
(0.933042 0.158915 -5.58076e-19)
(0.909674 0.174042 7.21387e-20)
(0.932397 0.235009 -1.42427e-19)
(0.910074 0.192405 0)
(0.96884 0.159801 2.67546e-19)
(1.0043 0.161003 0)
(1.00347 0.186929 0)
(1.06795 0.106751 8.96445e-20)
(1.02771 0.150734 -1.33932e-20)
(1.0223 0.213393 -4.92002e-20)
(1.05771 0.185397 0)
(1.02008 0.0262604 2.33523e-19)
(1.03562 0.0456161 2.78276e-19)
(1.03243 0.0318213 -2.31733e-19)
(1.03099 0.0492916 -1.86999e-19)
(1.01153 0.0517336 -3.11734e-19)
(0.976083 0.123472 0)
(0.982566 0.0755931 0)
(0.970393 0.0449942 -2.1415e-19)
(0.936257 0.0579287 8.98634e-20)
(1.01552 0.0801855 2.64463e-19)
(1.03252 0.108526 -2.72183e-19)
(1.03562 0.130866 2.47409e-19)
(0.998322 0.123609 0)
(1.04248 0.096301 0)
(1.02941 0.0790176 -1.13302e-19)
(1.02767 0.0796598 -2.12319e-19)
(0.562974 1.07405 -8.31819e-20)
(0.607667 1.44033 1.82732e-19)
(1.15086 2.76122 9.06314e-20)
(1.21867 3.09832 -6.91522e-20)
(1.24114 2.73247 5.36784e-19)
(1.27405 2.71691 -3.28634e-19)
(1.1996 2.34871 -8.17109e-21)
(1.20428 3.00083 1.85964e-19)
(1.2223 2.96504 -2.01034e-19)
(1.21129 3.25201 -2.65883e-19)
(1.37457 2.98175 3.68248e-19)
(1.3678 2.89854 0)
(0.50768 0.856392 -1.35677e-20)
(0.162203 1.29294 3.7533e-19)
(0.523661 0.543366 3.67664e-19)
(0.355908 0.313375 4.00549e-19)
(0.568852 0.431718 4.22741e-19)
(0.561792 0.497842 -6.73969e-19)
(0.55655 0.521475 5.53363e-19)
(0.52536 0.468979 -2.20859e-19)
(0.485762 0.409123 5.07121e-19)
(0.76533 0.269166 -1.94279e-19)
(0.733655 0.297076 0)
(0.722129 0.253111 1.01666e-20)
(0.727412 0.508212 1.96597e-19)
(0.704683 0.469014 -7.23001e-19)
(0.629329 0.494871 1.96485e-20)
(0.646253 0.464725 0)
(0.629069 0.73672 1.57087e-19)
(0.777294 0.75582 6.658e-20)
(0.709992 0.84306 -8.61404e-20)
(0.825584 0.790448 -2.24594e-20)
(0.86458 0.831451 1.18132e-20)
(0.873246 0.834705 -1.20958e-20)
(0.792778 0.621308 -2.39704e-19)
(0.871064 0.684143 2.08847e-20)
(0.934416 0.696385 0)
(0.922044 0.669757 -2.29993e-20)
(0.980369 0.313241 6.74045e-20)
(1.0892 0.27639 1.61956e-20)
(1.01411 0.246437 1.09041e-19)
(0.966039 0.347874 -1.52768e-19)
(1.01283 0.40444 0)
(1.05174 0.394855 0)
(0.885441 0.351031 5.09773e-21)
(0.817641 0.289178 0)
(0.838124 0.277456 2.07216e-19)
(0.87771 0.283632 -6.94001e-21)
(0.905856 0.412622 8.08738e-19)
(0.862128 0.46383 2.06262e-19)
(0.872324 0.433091 -2.59102e-19)
(0.80868 0.418337 2.77077e-19)
(0.795828 0.414241 1.88122e-19)
(0.770662 0.403922 -1.85095e-19)
(1.02732 -0.00592883 2.42041e-19)
(1.01971 -0.0019556 0)
(1.01822 -0.000841282 1.63933e-19)
(1.02288 -0.00218183 -3.7027e-19)
(1.02207 0.00197743 1.78026e-19)
(1.02096 0.0102888 -3.7384e-19)
(1.02239 0.00974973 0)
(1.02133 0.0106564 -7.87321e-20)
(1.01665 0.00688166 1.97723e-19)
(1.01687 0.0101087 -9.9493e-20)
(1.01741 0.00921608 7.26117e-20)
(-0.226015 1.28553 0)
(-0.326472 1.45953 0)
(-0.165777 1.14176 0)
(-0.15282 1.13879 0)
(-0.0126982 1.35791 -1.21621e-18)
(0.179953 1.18123 4.20837e-19)
(0.223532 1.683 2.9669e-19)
(0.251551 1.28294 -2.1135e-19)
(-0.332464 1.53016 5.27489e-19)
(-0.323852 1.52325 -4.0493e-19)
(-0.138516 1.25959 9.85755e-20)
(-0.159186 1.26987 6.20248e-19)
(-0.217355 1.283 7.51425e-20)
(-0.308628 1.39996 5.9853e-20)
(0.00676 2.59561 3.50025e-19)
(0.119659 2.61281 0)
(0.240356 2.25646 -4.07116e-20)
(0.236319 1.8354 -1.70722e-19)
(0.340069 2.09229 2.65581e-20)
(0.258179 2.45693 0)
(0.277857 2.41549 -2.01512e-19)
(0.374001 2.39634 1.33143e-19)
(0.30711 2.07273 9.38964e-20)
(0.238484 2.2894 2.47363e-20)
(0.162634 2.44187 0)
(-0.403705 2.16733 3.76846e-19)
(-0.338632 2.27337 1.3162e-19)
(-0.397919 2.16541 0)
(-0.308622 2.43438 6.76996e-21)
(-0.357329 2.39317 -1.91753e-19)
(-0.232064 1.65734 -4.16135e-21)
(-0.158961 1.68123 7.30997e-20)
(-0.161422 1.72648 -2.39847e-20)
(-0.246123 1.7228 -2.15674e-20)
(-0.303385 1.69164 0)
(-0.135818 1.72963 0)
(-0.0436884 1.7413 1.06148e-20)
(-0.0751425 1.76154 -2.83694e-21)
(-0.0972531 1.74267 0)
(-0.0589171 1.691 6.53371e-21)
(-0.0308983 1.70226 -1.50484e-20)
(1.03501 0.00305648 0)
(1.0428 0.00651646 -2.44457e-20)
(1.04674 0.0172819 -1.76218e-19)
(1.04618 0.0180974 0)
(1.04634 0.018551 0)
(1.04547 0.00583312 -6.33123e-21)
(1.03977 0.004376 2.93661e-19)
(1.04153 0.0118412 3.52627e-19)
(1.03151 0.016534 0)
(1.03032 0.0149727 0)
(1.04231 0.0190823 1.77924e-19)
(1.03261 0.0147568 0)
(1.03152 0.0138991 0)
(-0.0846489 1.84762 0)
(-0.0578908 1.81447 2.58936e-21)
(-0.0667644 1.83969 8.66228e-21)
(-0.0569024 1.76874 0)
(-0.070253 1.80472 7.05765e-21)
(-0.0544006 1.79626 -6.2912e-21)
(-0.0525711 1.78784 0)
(0.36827 1.72053 0)
(0.340329 1.33338 6.00543e-19)
(0.286673 1.38211 0)
(0.425426 1.28471 -7.75392e-19)
(0.489116 1.42707 0)
(0.43563 1.4002 3.83338e-19)
(1.02713 2.70417 -4.1577e-21)
(0.946197 2.41171 -2.63371e-19)
(0.870053 2.14688 3.63657e-19)
(0.846937 2.35881 1.35719e-19)
(0.847622 2.52926 0)
(0.909194 2.5182 0)
(0.878448 2.37659 0)
(0.915663 2.32702 -4.77505e-19)
(0.68119 2.50963 -2.48966e-20)
(0.81139 2.50094 -1.36851e-20)
(0.819528 2.47291 1.04775e-20)
(0.677944 2.35708 0)
(0.786155 2.36083 0)
(0.746064 2.36434 -2.34943e-19)
(0.764294 2.51486 0)
(0.575435 1.08564 0)
(0.468614 0.924275 -1.20107e-20)
(0.51522 0.954991 -2.00627e-21)
(0.499081 1.04988 0)
(0.498459 1.00556 2.13826e-20)
(0.733202 0.86926 9.98107e-21)
(0.757186 1.002 0)
(0.728952 0.960642 -5.55032e-20)
(0.601472 1.02646 0)
(0.616433 0.935848 0)
(1.15628 2.77672 4.30071e-20)
(1.13364 2.84287 1.11643e-19)
(0.928918 2.36992 -2.61627e-19)
(0.894953 2.34288 2.94791e-20)
(1.11987 2.74625 0)
(1.07234 2.7158 -3.5367e-20)
(1.07475 2.48687 -8.5243e-20)
(0.968592 2.21821 -2.9633e-20)
(0.499641 1.3639 0)
(0.498723 1.06705 7.33271e-20)
(0.553751 1.14583 0)
(0.858917 0.210839 0)
(0.82125 0.162792 0)
(0.778808 0.155666 0)
(0.845351 0.218889 -3.25173e-19)
(0.792752 0.219027 2.01748e-19)
(0.940586 0.0527901 -1.85218e-19)
(0.948198 0.1007 0)
(0.924211 0.103872 8.34489e-20)
(0.888433 0.080016 3.41489e-19)
(0.882822 0.0493949 -2.10314e-19)
(1.16361 3.37781 -9.7888e-19)
(1.20837 3.29754 0)
(1.16488 3.40395 -1.92956e-18)
(0.652257 3.56453 1.65604e-18)
(0.879279 3.13043 3.827e-19)
(0.494123 0.876412 2.22463e-19)
(0.422177 0.861711 0)
(0.354428 0.564086 -8.44872e-20)
(0.425109 0.69897 3.87073e-19)
(0.524749 0.541115 -1.15807e-19)
(0.50885 0.565104 1.30998e-19)
(0.651288 0.543733 2.78371e-19)
(0.677367 0.539526 0)
(0.613543 0.638291 0)
(0.577677 0.571164 0)
(0.927356 0.577144 -4.49011e-20)
(0.859807 0.514322 -1.99729e-19)
(0.880687 0.546578 1.00358e-19)
(0.921505 0.486716 -1.46372e-19)
(1.01147 0.47012 0)
(1.02896 0.550349 -9.78211e-21)
(0.830403 0.378172 -4.14152e-19)
(0.82913 0.363552 -4.86249e-19)
(0.783954 0.376537 3.25944e-19)
(0.772583 0.348997 -3.65299e-19)
(0.820479 0.310736 -2.73929e-19)
(0.780725 0.307216 3.36015e-19)
(1.0276 0.00227089 -1.88466e-19)
(1.02892 0.00068948 3.85028e-19)
(1.02816 -0.00671376 2.29874e-19)
(1.03208 -0.00877866 -2.83973e-19)
(1.03685 -0.00140886 0)
(1.03488 0.000535604 -4.61942e-19)
(-0.25439 1.99203 -1.22269e-19)
(-0.243754 1.79944 0)
(0.0122801 1.85875 -9.79503e-19)
(0.107885 1.84584 8.9076e-19)
(0.151228 1.67055 -5.5176e-19)
(-0.0221699 1.68799 0)
(-0.148879 1.84877 0)
(-0.131143 1.77255 -2.0707e-21)
(-0.0965182 1.77492 1.87029e-21)
(-0.0855716 1.80088 4.92286e-21)
(-0.099586 1.85085 -1.06553e-20)
(-0.112943 1.84999 7.42074e-21)
(0.50376 1.37744 4.11999e-19)
(0.491138 1.39016 -4.42207e-19)
(0.441077 1.2813 3.97836e-19)
(0.413722 1.30054 -2.62041e-20)
(0.61722 1.29572 0)
(0.551691 1.3741 5.27732e-19)
(0.565932 1.3593 -5.10234e-19)
(0.454995 1.26144 -3.92311e-19)
(0.503229 1.21532 0)
(0.559015 1.18393 0)
(0.632077 2.46016 3.66695e-20)
(0.671464 2.47729 5.62632e-19)
(0.706217 2.49374 -3.84503e-19)
(0.604387 2.47806 -1.26708e-19)
(0.549465 2.56966 1.22486e-19)
(0.525852 2.53918 -3.45626e-19)
(0.959198 2.36287 -1.9803e-19)
(1.00037 2.38673 0)
(0.891309 2.1303 -2.65434e-19)
(1.04141 2.6969 0)
(1.0402 2.68323 0)
(0.622974 2.30306 2.47519e-19)
(1.04079 3.18029 4.80192e-19)
(0.913325 3.05037 -4.34227e-19)
(0.295827 0.97677 0)
(0.347612 0.847369 -1.52087e-19)
(0.490359 0.789658 -6.79277e-20)
(0.41254 2.05308 0)
(0.474768 2.79817 -2.66358e-19)
(0.437966 2.56364 0)
(0.639372 0.683016 -3.2602e-19)
(0.712207 0.660085 4.22427e-19)
(0.742412 0.604947 -4.13482e-19)
(0.631192 0.64648 -4.83306e-20)
(0.697183 0.593797 -1.97724e-19)
(1.00004 2.78746 -3.6502e-19)
(1.0327 2.84413 2.74558e-19)
(0.65256 2.20226 4.43298e-20)
(0.59867 1.74596 -6.36087e-20)
(0.695689 1.93467 9.37772e-20)
(0.982352 2.46951 -7.11732e-20)
(0.988378 2.47205 -1.47203e-19)
(0.671683 1.88901 -4.2727e-21)
(0.445125 1.35403 -7.11493e-20)
)
;

boundaryField
{
    wall-4
    {
        type            noSlip;
    }
    velocity-inlet-5
    {
        type            fixedValue;
        value           uniform (1 0 0);
    }
    velocity-inlet-6
    {
        type            fixedValue;
        value           uniform (0 3 0);
    }
    pressure-outlet-7
    {
        type            zeroGradient;
    }
    wall-8
    {
        type            noSlip;
    }
    frontAndBackPlanes
    {
        type            empty;
    }
}


// ************************************************************************* //
