/*--------------------------------*- C++ -*----------------------------------*\
| =========                 |                                                 |
| \\      /  F ield         | OpenFOAM: The Open Source CFD Toolbox           |
|  \\    /   O peration     | Version:  4.0                                   |
|   \\  /    A nd           | Web:      www.OpenFOAM.org                      |
|    \\/     M anipulation  |                                                 |
\*---------------------------------------------------------------------------*/
FoamFile
{
    version     2.0;
    format      ascii;
    class       volScalarField;
    location    "50";
    object      p;
}
// * * * * * * * * * * * * * * * * * * * * * * * * * * * * * * * * * * * * * //

dimensions      [0 2 -2 0 0 0 0];

internalField   nonuniform List<scalar> 
918
(
0.561196
1.2007
0.00158035
0.560588
-0.0112943
1.1677
-0.497674
0.698423
0.541366
-0.0958454
-0.0284712
0.538726
1.02852
0.794296
-1.11892
-0.0012427
0.658797
-0.376942
0.540436
-0.0415783
0.727704
0.547931
0.55096
0.541543
0.608231
0.769876
0.909727
0.0201486
0.00706261
0.00356313
-0.0104016
-0.0364437
-0.0296451
1.05133
1.10243
1.12513
0.509395
0.338045
-0.364805
-0.433572
-0.426094
-0.541631
0.693321
0.692073
-0.191653
0.701198
0.705805
0.528475
0.540734
0.54164
0.542691
0.541658
0.543047
0.414439
-0.0989492
-0.131644
-0.0754565
-0.0669058
0.068648
-0.0306096
-0.0325806
-0.0265159
-0.0265233
0.459215
0.533783
0.530822
0.543983
0.553283
1.14025
1.11217
1.1383
1.05204
1.06849
1.0065
0.979094
0.814888
0.837023
0.779988
0.765715
-1.554
-2.51099
-0.525996
-0.273808
-0.010344
0.00255551
0.00929736
0.653854
0.654002
0.660014
0.666197
1.08766
-0.37599
-0.474508
0.540571
0.539372
0.547728
0.548425
0.544441
0.543533
-0.0332308
-0.0306437
-0.039709
-0.0402697
-0.0379819
0.716746
0.715426
0.542078
0.539089
0.560066
0.581128
0.573213
0.285731
0.611637
0.625483
0.599595
0.760627
0.755677
0.76411
0.883394
0.847305
0.946582
0.969809
0.0163725
0.000669103
-0.00907507
-0.0164677
-0.0147953
0.505273
0.497896
0.524738
0.512786
0.515262
0.253959
0.119401
0.423718
0.449016
-0.28134
-0.343375
-0.423101
-0.451382
-0.562379
0.614117
0.685009
0.682329
-0.205917
-0.13272
-0.263605
-0.0593989
-0.120623
0.518807
0.525769
0.520794
0.536277
0.530759
0.532715
0.544988
0.542065
0.543622
0.476884
0.600637
0.340877
0.306311
-0.237905
-0.149099
-0.238992
-0.0549674
-0.0506157
0.0823129
0.107554
0.0557146
0.0440221
-0.043524
-0.0356266
-0.0393589
-0.0253149
-0.0266178
0.452101
0.441092
0.471789
0.479251
0.523153
0.524428
0.528085
0.526382
0.929855
0.952322
0.959803
0.933453
-3.50673
-6.29996
0.0530033
0.190389
-0.00571842
-0.00903125
0.00185149
-0.00384867
0.00126129
-0.00118369
0.00760436
0.00541808
0.00872362
0.0111699
0.646442
0.646712
1.00741
1.01068
0.986166
0.937796
0.528721
0.530814
0.536341
0.53221
-0.0254564
-0.0277595
-0.025241
0.707771
0.712981
0.711277
0.247934
0.159645
0.336026
0.364631
0.639365
0.628218
0.638035
0.661243
0.697634
0.977269
0.995474
0.993681
1.00196
1.04592
1.06226
1.02773
0.484983
0.494825
0.489849
0.5279
0.525638
0.526561
0.52221
0.523618
0.521489
-0.0319761
-0.414226
0.498385
0.516537
0.498636
0.503454
0.693482
0.770686
0.667491
0.676218
0.673692
0.00876463
-0.0492279
0.26239
0.229062
0.392505
0.428421
0.407641
0.901213
0.861234
0.911436
0.884748
0.845888
0.872277
-0.36596
-1.87258
-0.987934
0.542249
0.35561
0.443576
0.0258876
0.008584
0.0139184
1.00402
1.07957
0.656535
0.828331
0.833299
0.732153
0.761286
0.821521
0.747134
0.782073
0.815864
0.793691
0.571003
0.511523
0.524869
0.83987
0.895774
0.130986
0.0719847
0.0277766
0.126118
0.182374
0.157013
1.04101
0.950668
1.02179
0.538843
0.539552
-0.000219777
-0.0104878
0.543749
0.543798
-0.00813363
0.00343929
0.425978
-0.827961
0.113563
0.532285
0.52234
0.539381
-0.0793756
0.367247
-0.0304694
0.0634532
0.00774742
0.536142
0.470125
0.42987
0.00637878
-0.01049
-0.0358035
-0.20796
0.536514
0.534821
0.53885
0.53981
0.540479
-0.011512
-0.00752472
-0.00579557
-0.0342798
-0.0299557
-0.0404439
0.503591
0.521979
-0.162104
0.538989
0.541115
0.540938
0.534163
0.539808
0.538049
-0.00210201
-0.00935179
-0.0110064
0.229991
0.358283
0.667736
0.756757
0.639093
0.413255
0.176406
0.569731
0.633462
0.538535
0.692901
0.681146
0.69631
0.178857
0.0290156
0.187702
0.129447
0.530144
0.528832
0.520598
0.517612
0.534244
0.532348
0.536914
0.533912
0.536863
0.538255
-0.037166
-0.0607056
-0.0747244
-0.141077
0.322408
0.584016
0.264236
0.294888
0.15571
-0.0233472
-0.0244199
-0.0298193
-0.0360325
0.0178874
-0.00708707
0.0586846
0.0593239
0.031577
0.00461415
0.00982166
-0.00167357
0.00196462
0.529235
0.527629
0.534044
0.543216
0.479636
0.483388
0.44876
0.469206
0.454635
0.394289
0.429151
0.404464
0.00117206
0.0109867
0.00284832
-0.00623242
-0.00222576
-0.0206315
-0.018801
-0.0153283
-0.0119013
-0.0184822
-0.0296758
-0.0280095
-0.167069
-0.282262
0.993714
0.920963
0.136094
0.525687
0.532122
0.528899
0.533763
0.536888
0.537712
0.53544
0.531996
0.522394
0.523996
0.520705
0.521465
-0.0944064
-0.234256
-0.0633313
-0.135196
0.148415
0.630658
0.370182
0.30718
0.302075
0.528909
0.932086
0.719902
0.697189
0.712492
-0.335783
0.0575149
-0.270247
0.347974
0.171803
0.667938
0.715851
0.735741
0.684952
0.6383
-0.101143
0.561016
-0.0597714
-0.0100018
0.189869
0.0706205
0.695579
0.665476
0.669081
0.686122
0.703278
0.671578
0.655087
0.649667
0.682364
0.685973
0.499063
0.261265
0.213709
0.174889
0.649757
0.535383
0.589415
0.504569
0.525249
0.527917
0.526534
0.508371
0.515885
0.511465
0.517777
0.521175
0.529959
0.530381
0.525712
0.527865
-0.0414226
-0.0445138
-0.0192158
-0.128956
-0.119653
-0.181099
-0.0550926
0.0828473
0.0450145
0.241909
0.347591
0.0595514
-0.0523383
-0.0245069
0.0140637
0.185985
0.211881
0.0866446
0.175428
0.163636
0.147097
0.248635
0.253526
-0.0105812
-0.014749
-0.0175671
-0.0193813
0.0345019
0.104511
0.114353
0.0123931
0.00671768
-0.0226048
-0.0216837
-0.00828993
-0.0124959
-0.00890919
0.0252667
-0.0395195
-0.00722583
0.00846419
0.0148888
0.0116316
0.00667594
0.521599
0.523879
0.523528
0.530976
0.549247
0.565448
0.521939
0.501596
0.492491
0.495481
0.468753
0.478939
0.474621
0.488228
0.50925
0.518517
0.51593
0.518671
0.501391
0.503063
0.489675
0.493355
0.468545
0.449751
0.438008
-0.0304477
0.00720952
0.000579539
-0.0283702
0.000725031
-0.0118636
0.00444678
0.0231309
0.00744592
0.00401648
-0.00573079
-0.0134305
-0.0122021
-0.0689688
0.0159645
-0.177372
-0.215005
-0.284871
0.895254
1.01882
0.817718
0.591156
0.608409
0.851062
0.93673
0.55364
0.742779
0.766841
0.589162
0.85464
0.530506
0.530114
0.527717
0.527193
0.528414
-0.00224121
0.101131
0.103362
0.163556
0.280288
0.393148
0.319228
0.194108
0.325542
0.328802
0.623054
0.635888
0.591435
0.615154
0.615634
0.433144
0.508884
0.561339
0.518288
0.569884
0.590764
0.546809
0.579
0.529216
0.48392
0.480164
0.430485
0.450385
0.427081
0.40958
0.520592
0.497881
0.508426
0.498756
0.518258
0.542479
0.539269
0.571735
0.582654
0.502378
0.458623
0.467951
0.498325
0.459016
0.473941
0.49014
0.234432
0.135293
0.21838
-0.0699354
0.00548204
-0.00874538
-0.0563277
-0.00765586
0.277543
-0.416724
-0.392566
-1.0226
0.504465
0.963921
0.644356
0.617621
0.700168
0.68195
0.686969
0.704468
0.708644
0.640261
0.656669
0.658801
0.621297
0.644854
0.665206
0.662354
0.530881
0.39563
0.391772
0.343174
0.213612
0.251608
0.451821
0.374206
0.299145
0.300277
0.466621
0.353848
0.422968
0.458986
0.390147
0.343942
0.547953
0.613053
0.604688
0.578881
0.495303
0.509067
0.533203
0.568516
0.594516
0.625773
0.517337
0.523192
0.524438
0.521933
0.519186
0.522183
0.522374
0.524908
0.525624
0.528588
0.527614
-0.0309449
-0.0190265
-0.0322607
-0.040241
-0.00887034
-0.0128723
0.0307265
0.0171977
0.00178492
0.00789866
-0.0184553
-0.0226507
-0.0177926
-0.0085937
0.108859
0.121464
0.105269
0.0657712
0.255209
0.385843
0.45864
0.334842
0.227791
0.251493
0.272696
0.00118893
0.0289534
0.0161781
0.0544886
0.0456538
-0.0170911
-0.0210018
-0.0191872
-0.0117251
-0.00279093
-0.020346
-0.0228546
-0.0142243
-0.0185981
-0.0182292
-0.0223669
0.503815
0.497358
0.499021
0.492932
0.491661
0.505824
0.51004
0.511999
0.517405
0.519619
0.50986
0.515501
0.519228
0.00517348
-0.0194203
-0.0228072
-0.00987825
-0.0146714
-0.01394
-0.0155468
0.125366
0.0538271
0.0583622
0.0124139
-0.117183
-0.0596244
0.493118
0.493031
0.485961
0.722602
0.57233
0.492726
0.589995
0.69514
0.276685
0.475249
0.308876
0.891427
0.78621
0.932661
0.54527
0.246781
0.406482
0.454579
0.264423
0.337324
0.332661
0.220073
0.251907
0.287086
0.38843
0.268184
0.243995
0.00144656
0.190612
0.304768
0.286233
0.413038
0.475136
0.266387
0.18789
0.141876
0.610488
0.629107
0.644497
0.617475
0.638195
0.58105
0.569622
0.587957
0.597747
0.592694
-0.749948
-0.456502
-1.40232
-0.72047
-0.267592
0.535364
0.502164
0.772325
0.654149
0.705088
0.6897
0.647643
0.615267
0.634359
0.661418
0.356409
0.467707
0.442726
0.447786
0.349115
0.280516
0.581016
0.575438
0.610099
0.633618
0.60303
0.634097
0.515134
0.514813
0.514366
0.510657
0.508913
0.511217
0.0695166
0.0387343
0.0738521
0.0545544
0.0318462
0.0204065
0.00959747
-0.000367341
-0.00683749
-0.0080125
0.00619496
0.00999036
0.171077
0.110706
0.0311724
0.0609172
0.00108201
-0.0672997
-0.0849849
0.0166353
0.111478
0.102144
0.407395
0.658692
0.478639
0.645944
0.487328
0.543138
0.475259
0.467192
0.493713
0.383291
0.462907
0.242683
-0.264513
-0.172991
0.791329
0.805833
0.588083
0.407871
0.176305
0.359154
0.552011
0.484796
0.521893
0.591026
0.580197
0.0237002
0.0856425
0.360496
0.587845
0.240985
0.232085
0.226213
0.405848
0.326651
)
;

boundaryField
{
    wall-4
    {
        type            zeroGradient;
    }
    velocity-inlet-5
    {
        type            zeroGradient;
    }
    velocity-inlet-6
    {
        type            zeroGradient;
    }
    pressure-outlet-7
    {
        type            fixedValue;
        value           uniform 0;
    }
    wall-8
    {
        type            zeroGradient;
    }
    frontAndBackPlanes
    {
        type            empty;
    }
}


// ************************************************************************* //
