/*--------------------------------*- C++ -*----------------------------------*\
| =========                 |                                                 |
| \\      /  F ield         | OpenFOAM: The Open Source CFD Toolbox           |
|  \\    /   O peration     | Version:  4.0                                   |
|   \\  /    A nd           | Web:      www.OpenFOAM.org                      |
|    \\/     M anipulation  |                                                 |
\*---------------------------------------------------------------------------*/
FoamFile
{
    version     2.0;
    format      ascii;
    class       volVectorField;
    location    "50";
    object      U;
}
// * * * * * * * * * * * * * * * * * * * * * * * * * * * * * * * * * * * * * //

dimensions      [0 1 -1 0 0 0 0];

internalField   nonuniform List<vector> 
918
(
(0.985162 -0.000504099 0)
(0.00501158 2.96625 0)
(0.00823155 0.871806 0)
(0.979703 0.00214744 0)
(-0.0114042 2.06659 3.48385e-20)
(-0.00704414 2.94879 -2.50041e-18)
(0.810984 1.15013 4.38173e-19)
(0.210521 0.104807 -1.55285e-20)
(0.999908 -0.000281733 0)
(0.0616936 0.778789 0)
(0.0121667 0.584265 0)
(0.734798 -0.0176755 0)
(0.0111135 2.93033 0)
(0.00288602 2.79474 0)
(-0.0175502 3.15246 7.74047e-19)
(-0.0207445 1.91051 -6.04107e-22)
(0.289298 0.0349638 1.0296e-18)
(0.186682 1.15407 3.11864e-19)
(0.962749 0.00501897 0)
(-0.00236786 0.516595 0)
(0.0244565 0.139523 -7.31568e-19)
(1.00198 -0.00497846 0)
(1.00022 -0.00978921 0)
(0.97573 -0.00643963 0)
(0.584202 -0.0343116 0)
(0.0152171 2.64073 0)
(-0.0148227 2.90997 9.22247e-19)
(0.00983963 0.931854 0)
(-0.0102372 1.17461 0)
(0.0111695 0.911934 0)
(-0.0122209 2.60658 0)
(-0.000516398 2.12052 -2.7824e-20)
(-0.0101132 1.89418 0)
(-0.020609 2.9876 -8.99699e-23)
(-0.0166887 3.0053 1.94331e-18)
(0.00210436 3.00019 0)
(0.871022 -0.00958137 0)
(0.404805 0.937304 1.82942e-19)
(0.79332 1.16575 -4.96103e-19)
(0.944164 1.00914 5.38028e-19)
(0.664356 1.25691 -1.01236e-19)
(0.665773 1.23573 5.84843e-19)
(0.246557 0.171964 1.51494e-20)
(0.223734 0.0785945 0)
(1.14518 0.555545 0)
(0.215238 0.163468 6.90902e-20)
(0.182533 0.103169 -7.16925e-20)
(0.919834 -0.00744529 0)
(1.00026 0.000156504 0)
(0.99991 0.000335712 0)
(1.00363 -0.00776691 0)
(1.00096 -0.00092048 0)
(1.00017 3.30129e-05 0)
(0.0749898 1.81825 -7.92723e-19)
(0.0287543 0.975397 0)
(0.0948261 0.849287 0)
(0.013488 0.92954 0)
(0.0359596 0.709849 0)
(0.00908609 2.00338 0)
(-0.00137077 0.827548 0)
(0.0107133 0.595355 0)
(0.000403811 0.817315 0)
(0.0086038 0.573259 0)
(0.840084 -0.0158597 0)
(0.843863 0.0303104 0)
(0.767581 -0.00660656 0)
(0.811565 0.0402562 0)
(0.705023 -0.019759 0)
(0.0146914 3.0004 9.2733e-19)
(0.0115088 3.00801 0)
(0.00611903 3.00278 0)
(0.0135491 2.99735 1.05296e-23)
(0.00797215 2.95847 -1.37824e-18)
(0.0144846 2.98201 0)
(0.0108318 2.90362 0)
(0.0248375 2.93056 2.11682e-24)
(0.00454314 2.82479 0)
(0.0307656 2.91619 0)
(-0.00539167 2.74581 0)
(0.307034 3.5476 0)
(-0.13167 3.62877 0)
(0.138924 3.24263 -7.2033e-19)
(-0.0129565 2.97915 0)
(-0.0195559 1.98839 0)
(-0.00589041 2.16861 5.95835e-22)
(-0.0134641 1.91776 -8.23212e-21)
(0.388286 0.144372 -3.56865e-19)
(0.307652 0.0207695 -3.45698e-19)
(0.35717 0.15336 -1.07144e-18)
(0.264911 0.0411118 -7.02353e-19)
(0.226186 0.97124 0)
(0.267906 1.29967 -3.6448e-19)
(0.360456 1.22968 6.07128e-19)
(0.987457 0.00855784 0)
(0.941902 0.00583322 0)
(1.0003 0.000578772 0)
(1.00286 0.0093068 0)
(1.00302 0.00846424 -2.76515e-18)
(0.991911 0.00969858 2.08814e-18)
(-0.00323825 0.805046 0)
(0.000407423 0.52848 0)
(-0.0345947 0.996123 0)
(-0.0226241 0.837335 0)
(0.0029797 0.510404 0)
(0.0444254 0.143439 2.25969e-19)
(0.110963 0.117143 0)
(0.993545 -0.00837762 0)
(0.954439 -0.00652433 0)
(0.756594 0.0468339 0)
(0.691728 0.0568931 0)
(0.664281 -0.0314969 0)
(0.966253 -0.00793572 0)
(0.605169 0.0745833 0)
(0.444412 -0.0110232 1.54608e-18)
(-0.0369364 2.86318 6.86667e-19)
(0.0415783 2.90988 0)
(0.0538334 2.88554 0)
(-0.00405952 2.69992 0)
(-0.0134052 2.98505 8.74326e-19)
(-0.0179376 2.89498 0)
(-0.0154519 2.98807 -2.70892e-18)
(-0.0133165 2.92516 9.2706e-19)
(-0.014581 1.34323 0)
(0.00649996 1.37209 0)
(-0.00659109 2.13696 2.99835e-22)
(-0.0051086 2.10007 0)
(-0.0230797 1.90165 0)
(0.938291 -0.00752781 0)
(0.856943 -0.00987918 0)
(0.863335 0.00600803 0)
(0.949394 -0.00791228 0)
(0.883847 -0.00815445 0)
(0.51664 1.13059 -2.30947e-19)
(0.5658 1.1816 0)
(0.369156 0.882307 3.40834e-20)
(0.311419 0.741198 0)
(0.904729 1.04823 -1.47849e-19)
(1.02077 0.857904 2.97191e-19)
(0.352176 1.35004 0)
(0.519388 1.31488 0)
(0.542311 1.26066 0)
(0.118639 0.184673 -3.03095e-19)
(0.276516 0.163971 0)
(0.245992 0.0779231 1.98218e-19)
(0.992497 0.912945 0)
(1.06585 0.768565 0)
(1.09055 0.710107 -2.31535e-19)
(1.12471 0.61479 0)
(1.17574 0.400967 5.6144e-20)
(0.957635 -0.0087675 0)
(0.962445 -0.0100795 0)
(0.901626 -0.00796421 0)
(0.984186 -0.00916382 0)
(0.974676 -0.00936361 0)
(0.937097 -0.00636644 0)
(1.00019 0.00233616 0)
(1.0009 0.0014101 0)
(0.99991 0.000852684 0)
(0.0351461 2.07028 4.38461e-19)
(0.119665 1.76116 0)
(0.017254 2.18455 6.78884e-19)
(0.0482066 1.87219 -5.70115e-19)
(0.101618 1.16223 -2.55281e-19)
(0.0445353 1.04971 0)
(0.141863 1.00254 0)
(0.00853148 0.887633 0)
(0.0155328 0.659762 0)
(-0.000905999 2.23597 -1.0328e-21)
(0.0179832 2.00744 0)
(-0.00138035 2.23756 -4.34401e-20)
(0.0109277 2.01283 7.3708e-20)
(0.00362378 0.859236 0)
(0.00183334 0.841665 0)
(0.00858212 0.621199 0)
(0.00162179 0.811403 0)
(0.00849088 0.556229 0)
(0.937002 0.00949562 0)
(0.848137 -0.0149786 0)
(0.926568 0.000161103 0)
(0.841415 -0.0129648 0)
(0.812054 -0.000195276 0)
(0.900298 0.0209448 0)
(0.875539 0.0255077 0)
(0.78885 -0.00294893 0)
(0.00576248 3.0649 -8.66483e-21)
(0.0165887 3.05769 0)
(0.014648 2.96905 0)
(0.00868994 2.87628 0)
(0.923383 3.96232 0)
(1.23751 3.29546 9.29411e-19)
(0.0696733 3.07136 0)
(-0.0289171 2.90339 0)
(-0.00132414 1.39279 0)
(-0.0216211 1.69265 0)
(-0.00965725 1.52692 0)
(-0.0269034 2.56204 -5.4122e-21)
(-0.00809022 2.24669 0)
(-0.0161972 2.3981 0)
(0.00181445 1.94105 1.38797e-21)
(-0.00272978 2.23732 5.77073e-21)
(-0.00423267 2.20269 8.24573e-21)
(-0.00661184 1.92728 0)
(0.42983 0.127238 5.42403e-19)
(0.352656 0.0117413 -5.32411e-19)
(0.259881 1.58213 0)
(0.274189 0.74489 -3.16288e-19)
(0.177036 1.66828 -1.05695e-18)
(0.226586 1.2107 1.05939e-18)
(0.902132 0.00642506 0)
(0.967456 0.011088 0)
(0.974583 0.010789 0)
(0.923377 0.00643616 0)
(-0.00372346 0.812994 0)
(0.00400643 0.807897 0)
(0.00430026 0.537922 0)
(0.183976 0.15448 6.37873e-19)
(0.152947 0.140844 -7.5335e-19)
(0.150414 0.107608 0)
(1.09213 0.0844464 2.79293e-20)
(1.07436 0.0384177 0)
(1.00844 0.0391095 0)
(0.903795 -0.00636264 0)
(0.473947 0.107637 0)
(0.526195 0.0877057 -2.47172e-18)
(0.394982 0.00697774 9.2521e-19)
(0.0088607 2.98122 7.36342e-19)
(-0.0324636 2.8657 4.69152e-20)
(0.00361014 3.0503 -1.83338e-20)
(0.020154 3.04332 6.51305e-19)
(-0.0149842 2.99656 3.04333e-20)
(-0.012946 2.94943 -1.22409e-22)
(-0.0172804 3.01195 -5.62567e-19)
(0.0148815 3.02379 4.07663e-19)
(0.00740069 3.03691 -6.46073e-19)
(0.933312 -0.00144765 0)
(0.939017 -0.00340515 0)
(0.845198 -0.00942253 0)
(0.956626 0.0118351 0)
(0.942849 0.0131208 0)
(0.881677 0.00596491 0)
(0.917463 0.0168824 0)
(0.926196 0.0148565 0)
(0.83857 0.00294298 0)
(0.719332 1.40814 3.84456e-20)
(0.752592 1.51689 0)
(0.185913 0.323063 7.17191e-20)
(0.224047 0.66586 5.78778e-19)
(0.262193 0.722298 -3.37182e-19)
(0.265797 0.53112 6.70281e-19)
(0.341025 0.802429 1.59375e-18)
(0.137578 0.226872 3.7496e-19)
(0.328475 0.162418 7.44838e-19)
(0.303498 0.165246 1.94395e-19)
(0.254105 0.059623 3.69532e-19)
(1.16492 0.458562 4.88656e-20)
(1.18207 0.25351 4.4029e-20)
(0.0089606 2.23166 2.64336e-19)
(0.04278 1.93876 0)
(0.967659 0.0287733 0)
(0.941238 0.0135356 0)
(0.866442 -0.0183246 0)
(0.0113673 3.07439 0)
(0.019835 2.94423 1.19559e-18)
(0.0164153 2.95638 0)
(0.00634349 2.85049 -1.18592e-18)
(0.00636486 3.09187 2.90475e-19)
(0.00699707 3.08218 0)
(0.785524 1.81886 -1.59372e-19)
(1.24538 2.49546 4.05767e-19)
(0.767527 1.95828 -1.23422e-18)
(0.0197773 2.98124 -6.35494e-19)
(0.0352601 3.00008 0)
(-0.0345581 2.8772 0)
(-0.00305174 2.21769 -1.29014e-20)
(-0.00244653 2.24005 -1.68993e-20)
(0.00458851 1.97497 -7.46392e-21)
(0.277039 1.38998 1.02876e-18)
(0.233234 0.534983 -7.0565e-19)
(0.0633926 1.99505 7.73537e-19)
(0.135683 1.88236 -9.20195e-19)
(0.180204 1.50301 9.33881e-20)
(0.00569953 3.11837 -1.61945e-18)
(0.0117621 3.11919 1.77356e-18)
(-0.00925545 2.98052 8.0708e-19)
(-0.00423445 2.97724 -7.63307e-19)
(-0.0214519 2.8807 -8.22e-19)
(0.00843213 3.09912 -2.1591e-18)
(0.00149661 3.10566 2.17742e-18)
(0.278408 0.691712 0)
(0.244722 0.681367 -1.19752e-18)
(0.0965822 0.225644 5.31428e-19)
(0.354205 0.928225 1.11267e-18)
(0.192719 0.271716 -1.71552e-18)
(1.17616 0.172481 6.7511e-20)
(1.18269 0.307616 0)
(1.16452 0.120902 -1.23272e-20)
(0.000890453 2.24793 -1.67557e-21)
(0.00380071 2.24072 0)
(0.0268653 1.97403 0)
(0.340128 1.29887 -3.69946e-19)
(0.371837 1.13948 -8.01615e-19)
(0.206949 0.371271 1.42804e-18)
(1.00587 -0.0108464 0)
(1.00766 -0.00764393 5.10226e-19)
(-0.0112398 1.32232 0)
(-0.0265632 1.31406 0)
(1.00222 0.00350528 1.80629e-21)
(1.00367 0.00945713 1.04154e-18)
(-0.0154523 2.5454 6.8552e-21)
(-0.0214794 2.58842 0)
(0.0347445 3.17763 4.22642e-19)
(0.393236 3.48763 0)
(1.1673 0.65595 -6.36307e-20)
(1.01289 0.013104 -2.14451e-21)
(1.02129 -0.010342 0)
(1.0017 0.000119411 7.47617e-23)
(0.103005 1.36003 0)
(0.143961 2.57562 0)
(0.0243252 1.30614 0)
(-0.000849553 2.62405 4.17552e-20)
(-0.0212348 2.57993 1.60197e-20)
(1.00026 0.0292915 2.51516e-21)
(1.06237 0.00411959 0)
(1.09611 0.024013 0)
(-0.0212662 1.73382 0)
(-0.016354 2.58491 0)
(0.00240812 1.30645 0)
(0.299385 1.47333 -1.6415e-19)
(1.01128 -0.00963828 0)
(1.00939 -0.0149188 0)
(1.00237 0.000736049 6.51954e-19)
(1.00547 -0.00481564 -7.66333e-19)
(1.00118 -0.000988568 0)
(-0.00475036 1.4581 0)
(-0.000136122 1.36906 0)
(0.000284796 1.41571 0)
(-0.00110085 1.29452 0)
(-0.00891535 1.27641 0)
(0.000874232 1.25953 0)
(1.03479 -0.00622799 0)
(1.02014 0.0156444 -8.72949e-22)
(0.814586 1.26428 2.51857e-19)
(1.00224 0.000304556 -6.49731e-19)
(1.00407 0.00524879 7.60326e-19)
(1.00117 0.00206524 0)
(1.01277 0.0103224 6.46365e-19)
(1.008 0.00829821 -7.83093e-19)
(1.00857 0.0146881 0)
(-0.0216666 2.61435 0)
(-0.0233395 2.59521 -1.13795e-20)
(-0.0210279 2.60879 8.13966e-21)
(1.23232 0.263439 6.01827e-19)
(1.1587 0.0849803 0)
(0.0413275 3.07776 -9.36695e-19)
(0.0647527 2.85521 -6.8168e-20)
(0.14014 3.1922 1.43607e-18)
(0.135248 3.22049 -2.06799e-19)
(0.134287 3.23214 0)
(0.0188536 3.13738 2.42311e-19)
(0.0749697 3.16 9.23958e-19)
(0.0676696 3.1855 -4.56624e-19)
(0.0218283 3.12965 0)
(0.612589 0.277815 0)
(0.539451 0.31804 0)
(1.13737 0.691777 1.50012e-19)
(1.13276 0.812223 -1.39935e-19)
(1.19416 0.579093 0)
(1.22218 0.513986 0)
(1.0161 0.0133336 -1.2049e-18)
(1.01499 0.0142643 1.51244e-18)
(1.02528 -0.00988117 0)
(1.02334 -0.0119078 0)
(1.00643 0.00259157 0)
(1.01041 0.00370752 0)
(1.00457 0.00184997 0)
(1.0098 0.00620342 0)
(1.00783 0.00595185 0)
(1.00451 0.00468175 0)
(0.0917202 1.35736 0)
(0.0857078 1.32668 0)
(0.122784 1.39375 0)
(0.13786 1.40317 0)
(0.144834 2.60049 0)
(0.185258 2.66911 -4.31992e-19)
(0.1002 2.6563 0)
(0.0846551 2.65842 2.06585e-19)
(0.0376562 2.67941 -1.66489e-19)
(0.0150978 1.31441 0)
(0.0196873 1.24601 0)
(0.020272 1.32674 0)
(0.0329079 1.26906 0)
(0.00110914 1.98206 -1.04194e-20)
(-0.0199742 2.60797 -3.71376e-21)
(-0.00919045 2.66533 3.10858e-20)
(-0.018441 2.68379 0)
(-0.0221778 2.61377 -3.58641e-20)
(-0.0222445 2.60858 -5.65547e-21)
(0.0100424 1.98072 1.03249e-20)
(-0.00717444 2.39525 4.98277e-21)
(-0.0138408 2.41772 -3.52575e-20)
(1.01044 0.0372124 1.22976e-18)
(1.00573 0.0161438 -1.51908e-18)
(1.00156 0.0445153 -1.23085e-18)
(0.978049 0.0221381 1.57082e-18)
(1.0636 0.00791831 0)
(1.04888 -0.0085225 0)
(1.09317 0.034099 0)
(1.0735 0.0123258 0)
(1.07129 1.4429e-05 0)
(1.13882 0.0815055 0)
(1.11018 0.0435348 0)
(1.11338 0.0315274 0)
(-0.0205861 2.43489 -1.62268e-22)
(-0.00672753 2.00755 0)
(-0.0112891 2.2158 0)
(-0.0180162 2.60545 -3.98292e-21)
(-0.0159726 2.61471 -7.92833e-23)
(0.00818979 1.56617 -2.26193e-20)
(0.001444 1.49614 2.30285e-20)
(-0.00783331 1.38652 0)
(-0.0102797 1.39314 0)
(-0.0125276 1.38779 0)
(0.00209992 1.30777 0)
(0.0129032 1.23655 0)
(0.37892 1.48968 2.65893e-19)
(0.419823 1.49173 1.42251e-19)
(0.598199 2.45064 -2.40752e-19)
(0.400542 2.54609 7.10261e-19)
(0.351379 2.06359 7.23724e-20)
(1.02101 -0.00816936 0)
(1.01548 -0.00977702 0)
(1.0149 -0.0155101 0)
(1.00742 -0.00113398 0)
(1.00493 -0.000931032 0)
(1.00777 -0.00472932 0)
(1.00925 -0.00367525 0)
(1.01419 -0.00443794 0)
(1.02088 0.0161824 1.17993e-18)
(1.01786 0.0156337 -1.51069e-18)
(1.02125 0.0181648 -1.18885e-18)
(1.01904 0.0168404 1.48568e-18)
(0.776622 1.31514 0)
(0.712634 1.36562 2.37383e-19)
(0.889954 1.21464 8.96844e-20)
(0.936159 1.16015 -1.19342e-19)
(1.15747 2.60488 2.86609e-19)
(0.786334 0.117318 6.02805e-19)
(1.16118 0.106732 0)
(1.20857 0.191329 -4.83785e-19)
(1.19484 0.153092 -2.05242e-20)
(1.00532 0.153379 0)
(0.13236 2.95937 5.48793e-19)
(0.109248 2.86534 -1.19022e-18)
(0.0186388 2.37559 7.98733e-19)
(0.0905642 -0.082158 -3.52022e-19)
(0.338356 3.41724 -2.09412e-19)
(0.193206 3.31055 0)
(0.236511 3.35186 2.72727e-19)
(0.242489 3.03243 -1.82031e-18)
(0.336561 3.19127 0)
(0.00664299 3.1208 4.72305e-20)
(0.0174889 3.12945 -5.53855e-19)
(0.0153189 3.12557 8.15181e-19)
(0.0348562 3.13958 0)
(0.0329482 3.15044 0)
(1.21439 2.60316 0)
(0.544073 0.818639 -5.3402e-19)
(1.0593 0.984357 3.55606e-22)
(0.99425 1.0689 0)
(0.847157 0.968559 -1.13996e-19)
(1.08397 0.886095 2.83551e-20)
(0.348393 0.364208 -9.06057e-19)
(0.670417 0.313314 -1.96722e-20)
(0.612141 0.218607 4.22866e-19)
(0.564061 0.352669 3.11638e-20)
(0.468708 0.311038 -1.25354e-18)
(0.636581 0.321895 0)
(0.700395 0.416919 7.18414e-19)
(0.708682 0.420083 0)
(0.598241 0.345189 0)
(0.547091 0.260169 0)
(0.81047 0.616058 4.2368e-19)
(1.23231 0.285324 -5.08363e-19)
(1.23129 0.423438 0)
(1.24093 0.363934 0)
(0.722104 0.190019 6.28302e-19)
(0.857755 0.542472 -3.89355e-19)
(0.755926 0.512984 6.9069e-19)
(0.952901 0.435202 -7.59012e-19)
(1.01948 0.0148253 8.10157e-19)
(1.01772 0.0142806 -8.1525e-19)
(1.01592 0.015469 0)
(1.03625 -0.00577164 0)
(1.02975 -0.00848168 -7.63795e-19)
(1.02778 -0.0120425 7.56231e-19)
(1.02494 0.0101593 0)
(1.02351 0.0138429 0)
(1.01141 0.00410187 0)
(1.01424 0.00907423 0)
(1.01514 0.00405542 0)
(1.01424 0.00282208 0)
(0.0630925 1.34221 0)
(0.0659573 1.29712 0)
(0.143182 1.3698 5.23298e-22)
(0.272227 1.47003 8.50883e-20)
(0.165329 1.44101 1.77348e-19)
(0.197395 1.44781 -2.90182e-19)
(0.164877 1.39478 0)
(0.131532 1.59593 -7.91484e-20)
(0.115252 1.57027 0)
(0.349102 2.01564 -1.05217e-19)
(0.344637 2.34831 6.2355e-19)
(0.188623 1.45425 6.90091e-20)
(0.261366 1.38497 2.07027e-20)
(0.197131 1.37416 -1.67615e-20)
(0.27277 1.32843 -1.06714e-19)
(0.240479 1.57884 0)
(0.263275 1.61798 1.15277e-19)
(0.0295111 2.26566 -3.41768e-20)
(0.042287 2.66933 0)
(0.064803 2.40256 1.44703e-19)
(0.0609739 2.42305 0)
(0.0684926 2.6719 -2.28844e-19)
(0.0482966 2.6993 0)
(0.0263829 1.41975 1.53791e-20)
(0.032689 1.4713 0)
(0.0282989 1.38863 0)
(0.0230496 1.39194 -1.73525e-20)
(-0.00038596 2.65196 -1.69628e-20)
(0.028626 2.69771 1.89002e-19)
(0.00967247 2.72179 1.33605e-21)
(0.00227194 1.83011 1.0279e-20)
(-0.00376327 1.68262 3.23082e-21)
(0.015066 1.29812 0)
(0.0180532 1.22042 0)
(0.0453071 1.57909 -8.30975e-21)
(0.0283845 1.45383 -1.38267e-20)
(0.035337 1.51825 1.74363e-20)
(0.038134 1.60311 0)
(-0.025573 2.26732 6.46044e-20)
(-0.0260605 2.55052 -2.63062e-20)
(-0.0137282 2.44533 3.40201e-24)
(-0.002256 1.84641 -1.24585e-20)
(-0.0233765 2.49784 -3.89641e-21)
(-0.0195736 2.44087 2.39481e-20)
(1.01913 0.0210369 -8.0571e-19)
(1.01511 0.0268461 8.10314e-19)
(1.01415 0.0162667 0)
(1.01226 0.0712328 1.13777e-18)
(0.989477 0.0599193 -1.2811e-18)
(0.946599 0.0446604 1.43462e-18)
(1.0137 0.109655 -1.51612e-19)
(1.04258 -0.00580219 0)
(1.05082 -0.00154837 7.28784e-19)
(1.03887 -0.00991847 -7.30225e-19)
(1.07082 0.0417016 -4.33892e-20)
(1.06425 0.0233281 3.74019e-19)
(1.06327 0.0557519 0)
(1.0532 0.0490305 -1.34471e-19)
(1.03246 0.0421156 0)
(1.02566 0.038461 0)
(1.02782 0.0131558 0)
(1.02406 0.0159001 0)
(1.03982 0.0319192 2.76885e-19)
(1.03879 0.0266802 -6.11912e-19)
(1.05087 0.0336241 -2.93536e-19)
(1.04814 0.033642 -3.2328e-19)
(1.07073 0.0635355 6.31237e-19)
(1.09582 0.0515286 0)
(1.10414 0.0948312 0)
(-0.0201848 2.27267 3.99916e-20)
(-0.0171839 2.01368 -6.31425e-22)
(-0.013818 2.01998 0)
(-0.0229958 2.44623 -3.98028e-20)
(-0.0171723 2.40276 7.95143e-22)
(-0.028816 2.47593 3.24665e-21)
(-0.019258 2.62188 4.38016e-21)
(-0.019853 2.56353 -1.09341e-21)
(-0.0190066 2.5138 2.0698e-21)
(-0.0140195 2.61693 1.86768e-21)
(-0.019411 2.6183 -7.32975e-22)
(-0.000632898 1.4841 -3.65903e-22)
(0.00932879 1.61508 -1.7707e-20)
(0.3642 1.43752 -1.1179e-19)
(0.365707 1.37462 3.83922e-20)
(0.6533 1.41601 -2.29801e-19)
(0.520231 1.484 -1.39927e-19)
(0.577991 1.44954 0)
(0.593894 2.42751 2.07985e-19)
(0.661582 2.42128 3.38905e-19)
(0.41129 2.51779 8.65244e-20)
(0.402824 2.54323 -6.19379e-19)
(0.511205 2.48603 6.1659e-19)
(0.55361 2.46443 0)
(0.489325 2.52098 -5.63163e-19)
(0.248134 2.59363 1.16258e-18)
(0.354464 2.56658 -7.9045e-20)
(0.284163 2.65521 -1.60507e-18)
(0.946722 2.38016 7.30472e-19)
(0.837907 2.38517 0)
(1.01105 0.000464299 2.64524e-20)
(1.0153 -0.005442 -2.14626e-20)
(1.01763 -0.0035701 -3.92031e-19)
(1.01499 -0.000919183 3.94115e-19)
(1.01242 0.00116221 0)
(0.642271 1.28723 0)
(0.667298 1.18457 0)
(0.779339 1.0965 0)
(0.660019 1.14707 0)
(1.1869 2.61885 5.93932e-20)
(1.07572 2.36596 0)
(0.838154 2.17555 3.84899e-21)
(0.82598 2.44138 0)
(0.923272 2.53325 -4.2383e-19)
(0.958882 2.48901 2.81995e-19)
(0.808549 0.175708 0)
(0.76446 0.150025 1.63674e-19)
(0.916598 0.147525 9.53419e-19)
(0.83148 0.149189 -3.56864e-19)
(0.792981 0.0848454 -1.10082e-18)
(1.07937 0.235954 -9.08998e-19)
(0.995771 0.294274 -1.61497e-20)
(0.92919 0.296886 8.73769e-19)
(1.00738 0.226071 7.30369e-19)
(0.950802 0.192537 -1.26442e-18)
(0.915314 0.195505 1.58027e-19)
(0.954768 0.258583 -3.36229e-19)
(0.93009 0.220561 0)
(0.992767 0.187962 6.23704e-19)
(1.04693 0.189414 0)
(1.04321 0.216358 0)
(1.10538 0.11849 2.93585e-19)
(1.07095 0.176823 -1.45387e-20)
(1.07379 0.237019 -1.5978e-19)
(1.10147 0.203332 0)
(1.0229 0.046226 6.24674e-19)
(1.03981 0.0590828 7.78965e-19)
(1.03376 0.0445607 -6.19625e-19)
(1.04253 0.065826 -5.22068e-19)
(1.01894 0.073522 -8.00072e-19)
(0.98803 0.160224 0)
(0.99827 0.105941 0)
(0.964971 0.0677855 -5.11146e-19)
(0.910409 0.0912956 2.00672e-19)
(1.0392 0.105144 7.21701e-19)
(1.06891 0.121546 -8.46732e-19)
(1.07513 0.154687 7.56079e-19)
(1.02887 0.145024 0)
(1.07452 0.109928 0)
(1.05462 0.0905796 -3.46409e-19)
(1.04387 0.0955944 -5.90458e-19)
(0.583053 1.07074 1.41219e-19)
(0.61001 1.39666 -4.27173e-20)
(1.15695 2.73425 -2.28508e-19)
(1.22298 3.07613 1.81016e-21)
(1.24904 2.71757 -1.29885e-19)
(1.27827 2.7011 -3.03626e-20)
(1.20634 2.34208 -1.06438e-20)
(1.21052 2.98016 -9.37232e-20)
(1.23031 2.94552 2.35267e-19)
(1.21349 3.22944 -1.43426e-19)
(1.37375 2.96109 1.98269e-19)
(1.36332 2.87938 0)
(0.553863 0.826243 -5.03636e-20)
(0.125426 1.24059 5.7607e-19)
(0.542413 0.406379 5.87281e-19)
(0.381737 0.154359 6.45401e-19)
(0.503624 0.348633 7.08377e-19)
(0.543053 0.451953 -1.14139e-18)
(0.545716 0.451554 9.33144e-19)
(0.484123 0.361784 -3.56156e-19)
(0.387347 0.293395 8.07857e-19)
(0.729938 0.259107 -3.61144e-19)
(0.691078 0.281444 0)
(0.658909 0.20054 8.08415e-21)
(0.735519 0.505884 3.77887e-19)
(0.707847 0.474222 -1.37733e-18)
(0.614275 0.453534 1.3648e-20)
(0.619789 0.442941 0)
(0.683452 0.719252 4.02816e-19)
(0.845605 0.773429 4.06174e-19)
(0.769578 0.855436 -4.74967e-19)
(0.892106 0.810387 -1.60187e-19)
(0.922915 0.85439 -3.93299e-20)
(0.930212 0.854166 4.02752e-20)
(0.855839 0.650542 -7.02057e-19)
(0.938527 0.705864 1.48804e-19)
(0.997196 0.721413 0)
(0.988031 0.698458 -2.0245e-19)
(1.02511 0.334498 2.1861e-19)
(1.14364 0.300194 2.98038e-19)
(1.06637 0.273413 3.71858e-19)
(1.01148 0.366737 -4.41097e-19)
(1.06077 0.432811 0)
(1.1187 0.416434 0)
(0.919788 0.368823 4.39765e-21)
(0.842047 0.300108 0)
(0.882298 0.296973 4.11781e-19)
(0.910432 0.303949 -6.00311e-21)
(0.946872 0.43799 2.11503e-18)
(0.905567 0.495367 5.46076e-19)
(0.909234 0.460822 -5.81088e-19)
(0.82985 0.445416 6.22506e-19)
(0.812596 0.438502 3.73875e-19)
(0.781482 0.420071 -3.67571e-19)
(1.02731 -0.000351535 6.5308e-19)
(1.02 -4.02219e-05 0)
(1.01851 0.000890546 4.25779e-19)
(1.02169 -0.001686 -9.64489e-19)
(1.02231 0.0043463 4.68514e-19)
(1.02036 0.0113113 -9.81238e-19)
(1.0213 0.0106942 0)
(1.02058 0.0109352 -2.04477e-19)
(1.01597 0.00773674 5.12984e-19)
(1.01667 0.0105059 -2.5595e-19)
(1.01737 0.00985514 1.88506e-19)
(0.0279237 1.31872 0)
(0.0337494 1.3616 0)
(0.0434217 1.31967 0)
(0.0473376 1.27643 0)
(0.0707572 1.38395 -2.6808e-20)
(0.077904 1.35384 1.52227e-20)
(0.111345 1.52062 -1.82849e-20)
(0.0938804 1.36636 -1.08734e-21)
(0.0331868 1.45848 -6.10344e-21)
(0.0372663 1.45126 4.89103e-21)
(0.0624571 1.36842 -8.02002e-21)
(0.0545677 1.37007 2.75142e-20)
(0.0484283 1.34589 3.92697e-21)
(0.0385445 1.36939 6.18273e-22)
(0.106362 2.37329 -1.59803e-19)
(0.09514 2.42005 0)
(0.169956 2.048 1.10729e-19)
(0.109745 1.70911 4.31111e-20)
(0.231248 2.04347 -9.12905e-20)
(0.20315 2.43632 0)
(0.264308 2.38676 -6.07896e-19)
(0.303544 2.38455 4.30502e-19)
(0.229895 2.00387 -2.53678e-19)
(0.15365 2.16418 1.70717e-19)
(0.142396 2.27464 0)
(0.0160864 1.87779 -1.47715e-20)
(-0.0021232 2.39578 -6.16257e-20)
(0.00367302 2.15026 0)
(0.0096404 2.4583 -1.3438e-20)
(0.0259161 2.30318 1.89172e-20)
(0.0156798 1.40076 -3.45408e-21)
(0.0152594 1.38643 6.06513e-20)
(0.0151778 1.39142 -2.16999e-20)
(0.0202957 1.39211 -1.49872e-20)
(0.0255297 1.42349 0)
(0.0119683 1.3737 0)
(0.00489318 1.29097 -2.40396e-20)
(0.0126306 1.36439 6.44263e-21)
(0.0139833 1.36505 0)
(0.0088647 1.28283 -1.68295e-20)
(0.0165674 1.21332 3.57183e-20)
(1.04055 0.0115886 0)
(1.0466 0.00786172 -6.838e-20)
(1.03854 0.0216152 -4.9325e-19)
(1.04822 0.0204493 0)
(1.05205 0.020285 0)
(1.03626 0.0117531 -6.71309e-21)
(1.03096 0.011598 7.9254e-19)
(1.03172 0.0164809 9.60627e-19)
(1.02564 0.0203679 0)
(1.02268 0.0207597 0)
(1.03508 0.0253272 4.91846e-19)
(1.02591 0.0265758 0)
(1.02403 0.026613 0)
(-0.0152418 2.01722 0)
(0.00637665 1.64577 -3.66754e-21)
(-0.00137712 1.75248 -2.3256e-20)
(0.00488218 1.3761 0)
(-0.0029322 1.54552 -7.59239e-21)
(-0.00269275 1.45385 5.94901e-21)
(0.000146236 1.3883 0)
(0.392355 1.66339 0)
(0.369552 1.30395 -7.3692e-20)
(0.303528 1.34455 0)
(0.423544 1.30544 1.17339e-20)
(0.468833 1.462 0)
(0.450264 1.40844 2.19241e-20)
(1.03672 2.68259 -1.54796e-20)
(0.96771 2.40943 -9.18261e-19)
(0.919958 2.1948 1.03937e-18)
(0.851661 2.37715 2.42888e-19)
(0.848351 2.49356 0)
(0.918328 2.48932 0)
(0.930033 2.37389 0)
(0.90883 2.36232 -9.46516e-19)
(0.68933 2.45976 -3.96099e-19)
(0.80164 2.4494 -9.79933e-20)
(0.812403 2.42328 7.45545e-20)
(0.696026 2.39482 0)
(0.800785 2.39018 0)
(0.75923 2.40319 -3.69286e-19)
(0.7691 2.48397 0)
(0.627177 1.09735 0)
(0.484905 0.915033 -5.08408e-19)
(0.561882 0.95191 -3.22717e-20)
(0.524217 1.04884 0)
(0.524537 0.994911 7.6287e-19)
(0.791865 0.879347 -1.33313e-19)
(0.802436 1.01616 0)
(0.776879 0.980424 1.91949e-19)
(0.661294 1.0338 0)
(0.663944 0.93769 0)
(1.16544 2.75691 -2.3258e-19)
(1.14309 2.82013 -9.86401e-20)
(0.932109 2.33754 1.02917e-19)
(0.899873 2.31711 -8.41012e-20)
(1.1308 2.73043 0)
(1.08437 2.70025 1.01215e-19)
(1.09091 2.48441 -3.17929e-19)
(0.985754 2.23594 -3.07136e-20)
(0.498823 1.34689 0)
(0.513489 1.07372 -1.24535e-19)
(0.575403 1.17159 0)
(0.857599 0.239159 0)
(0.777327 0.191093 0)
(0.709946 0.15366 0)
(0.850337 0.239546 -6.48141e-19)
(0.749812 0.22897 3.76939e-19)
(0.927181 0.0776881 -4.14241e-19)
(0.941219 0.124587 0)
(0.922079 0.137467 1.77981e-19)
(0.858657 0.112292 7.14201e-19)
(0.825271 0.0698613 -4.46792e-19)
(1.15935 3.35467 -7.2009e-19)
(1.2079 3.27399 0)
(1.15708 3.38324 -1.48753e-18)
(0.64499 3.54429 1.26308e-18)
(0.868481 3.11247 7.11081e-20)
(0.520793 0.826548 6.07512e-19)
(0.430658 0.824217 0)
(0.323406 0.442587 -1.51831e-19)
(0.458894 0.663007 8.66585e-19)
(0.544556 0.409475 -2.04413e-19)
(0.511899 0.481427 2.36774e-19)
(0.666136 0.516127 5.09673e-19)
(0.700159 0.54764 0)
(0.651959 0.589545 0)
(0.610744 0.534246 0)
(0.998995 0.608316 9.5351e-20)
(0.911572 0.544688 -5.31199e-19)
(0.937844 0.577715 4.02293e-19)
(0.969633 0.5162 -4.10727e-19)
(1.07833 0.48886 0)
(1.08657 0.579071 -1.01453e-19)
(0.852384 0.398327 -8.53465e-19)
(0.854987 0.386868 -1.05448e-18)
(0.794346 0.386074 6.65628e-19)
(0.79729 0.358715 -6.7991e-19)
(0.84538 0.320071 -5.32769e-19)
(0.794488 0.318759 6.53425e-19)
(1.02666 0.00582925 -4.98752e-19)
(1.02638 0.00604882 1.01494e-18)
(1.02932 2.4529e-05 6.33031e-19)
(1.03352 0.000938887 -7.62425e-19)
(1.03362 0.00887574 0)
(1.03004 0.00954883 -1.24096e-18)
(0.0614632 1.64323 2.32173e-20)
(0.0446045 1.57901 0)
(0.0847282 1.69362 1.39798e-19)
(0.0951376 1.67564 -1.23212e-19)
(0.0878165 1.53336 3.42869e-20)
(0.0860091 1.5216 0)
(0.010936 1.67786 0)
(-0.00286164 1.48389 1.13133e-21)
(-0.000370529 1.42944 -1.01697e-21)
(-0.00328487 1.54142 6.04683e-21)
(0.00348249 1.87712 5.67984e-22)
(-0.00790911 1.93162 3.15379e-21)
(0.499589 1.36945 -2.77131e-19)
(0.492901 1.37249 3.04283e-19)
(0.450514 1.30077 -3.33086e-20)
(0.438125 1.29378 7.94947e-21)
(0.633912 1.30405 0)
(0.548402 1.3929 9.98095e-20)
(0.564126 1.39929 -9.71972e-20)
(0.462427 1.28761 3.23875e-20)
(0.519015 1.24194 0)
(0.571334 1.20789 0)
(0.656276 2.41919 5.81968e-19)
(0.671099 2.45957 1.2693e-18)
(0.715851 2.47014 -8.74281e-19)
(0.612482 2.44469 -2.02907e-19)
(0.561192 2.53584 2.84932e-19)
(0.509862 2.50962 -7.60036e-19)
(0.97834 2.3797 -5.81558e-19)
(1.01386 2.39231 0)
(0.925913 2.17273 -6.71469e-19)
(1.05486 2.67962 0)
(1.05715 2.66639 0)
(0.606513 2.26621 -1.20914e-19)
(1.04058 3.15845 1.33079e-19)
(0.911431 3.02877 -3.6872e-20)
(0.27448 0.882254 0)
(0.307094 0.734266 -3.19456e-19)
(0.472667 0.691825 -3.22204e-19)
(0.383962 2.01194 0)
(0.464663 2.78223 -4.95003e-20)
(0.419517 2.54549 0)
(0.702529 0.669137 -8.52743e-19)
(0.783991 0.677858 1.15307e-18)
(0.80538 0.621478 -1.14019e-18)
(0.681285 0.632277 -1.09918e-19)
(0.736186 0.588969 -4.53034e-19)
(1.00359 2.75989 -1.01202e-19)
(1.04268 2.8181 -1.65164e-19)
(0.636487 2.13555 6.80644e-19)
(0.592049 1.70499 -4.85278e-19)
(0.698169 1.89945 -4.07461e-19)
(0.989636 2.44336 -1.13907e-19)
(0.995593 2.43571 2.98053e-19)
(0.656674 1.83512 2.82376e-20)
(0.44845 1.32576 1.45834e-19)
)
;

boundaryField
{
    wall-4
    {
        type            noSlip;
    }
    velocity-inlet-5
    {
        type            fixedValue;
        value           uniform (1 0 0);
    }
    velocity-inlet-6
    {
        type            fixedValue;
        value           uniform (0 3 0);
    }
    pressure-outlet-7
    {
        type            zeroGradient;
    }
    wall-8
    {
        type            noSlip;
    }
    frontAndBackPlanes
    {
        type            empty;
    }
}


// ************************************************************************* //
