/*--------------------------------*- C++ -*----------------------------------*\
| =========                 |                                                 |
| \\      /  F ield         | OpenFOAM: The Open Source CFD Toolbox           |
|  \\    /   O peration     | Version:  4.0                                   |
|   \\  /    A nd           | Web:      www.OpenFOAM.org                      |
|    \\/     M anipulation  |                                                 |
\*---------------------------------------------------------------------------*/
FoamFile
{
    version     2.0;
    format      ascii;
    class       volScalarField;
    location    "34";
    object      p;
}
// * * * * * * * * * * * * * * * * * * * * * * * * * * * * * * * * * * * * * //

dimensions      [0 2 -2 0 0 0 0];

internalField   nonuniform List<scalar> 
918
(
0.601698
1.254
0.00482973
0.601001
0.00211938
1.22101
-0.454088
0.770351
0.581824
-0.0462221
0.0178417
0.57637
1.0818
0.847979
-1.08364
0.107538
0.721259
-0.336369
0.580823
-0.0242745
0.804093
0.588426
0.591461
0.582051
0.643212
0.827786
0.962829
-0.024587
-0.0162093
-0.0176246
0.0415525
0.0461664
0.0616378
1.10465
1.15574
1.17843
0.550245
0.375719
-0.314916
-0.386117
-0.381687
-0.483761
0.76174
0.763883
-0.12456
0.771474
0.78109
0.569073
0.581186
0.582073
0.583183
0.582126
0.583526
0.45784
-0.0528983
-0.0850617
-0.0254775
-0.0153088
0.126419
0.017074
0.0132664
0.0204303
0.021247
0.501644
0.572395
0.569527
0.581299
0.589318
1.19355
1.16546
1.1916
1.10533
1.12178
1.05977
1.03231
0.868318
0.890215
0.833651
0.819782
-1.52182
-2.48484
-0.487325
-0.232812
-0.0276811
0.0957059
0.10222
0.71228
0.711612
0.722465
0.734849
1.12535
-0.331403
-0.453691
0.580959
0.579754
0.588144
0.588838
0.584849
0.583945
-0.0168134
-0.00835528
-0.046474
-0.029269
-0.0322738
0.793283
0.791972
0.582596
0.579618
0.596604
0.617052
0.608957
0.334908
0.647512
0.66095
0.650007
0.815298
0.81159
0.819595
0.93651
0.899973
0.999773
1.02308
-0.0405085
-0.052582
0.105456
0.0868128
0.100243
0.546204
0.538971
0.564938
0.553595
0.555996
0.291206
0.156
0.461648
0.487068
-0.226387
-0.288959
-0.390923
-0.408371
-0.515313
0.649642
0.751156
0.75148
-0.144517
-0.0657752
-0.201501
0.00738425
-0.0532272
0.559498
0.566399
0.561468
0.576815
0.571332
0.573273
0.585409
0.582487
0.584049
0.521992
0.646024
0.384441
0.352
-0.19723
-0.103917
-0.199485
-0.0031811
0.0027651
0.13416
0.157204
0.114759
0.105978
0.00649645
0.0133074
0.00895079
0.0237531
0.0218085
0.494735
0.484259
0.513809
0.520899
0.562922
0.563989
0.567064
0.565716
0.983105
1.00559
1.01299
0.986626
-3.48676
-6.29108
0.0966279
0.235865
-0.0973537
-0.0807388
-0.0451721
0.0253843
-0.0164073
-0.00109552
0.0859177
0.0805098
0.0913737
0.0919043
0.696798
0.696073
1.04234
1.04015
1.02613
0.975126
0.569018
0.57114
0.576712
0.572549
0.01691
-0.00435216
0.0102736
0.780341
0.787529
0.786982
0.298413
0.213343
0.38354
0.410876
0.68231
0.66585
0.679617
0.712762
0.749048
1.03056
1.04875
1.047
1.05527
1.09924
1.11559
1.08101
0.526392
0.535976
0.531174
0.568172
0.565844
0.566798
0.562204
0.563753
0.561497
0.00374452
-0.380183
0.543392
0.559814
0.536145
0.544417
0.727146
0.800154
0.734261
0.743526
0.743141
0.0731742
0.0163197
0.309342
0.275077
0.437504
0.472012
0.452117
0.954387
0.914432
0.964579
0.938008
0.899121
0.925679
-0.33197
-1.8464
-0.95704
0.591886
0.40276
0.491901
0.0907954
0.0844939
0.0875447
1.03381
1.11321
0.701862
0.866954
0.8769
0.784677
0.815144
0.873903
0.798616
0.834167
0.868894
0.847712
0.606346
0.556648
0.563687
0.868253
0.923281
0.187351
0.133203
0.089174
0.178296
0.230564
0.207054
1.07891
0.979746
1.05122
0.579363
0.580052
-0.0572645
-0.0519043
0.584171
0.58421
0.0356988
0.0649369
0.473406
-0.793638
0.176677
0.572642
0.562953
0.579834
-0.0285959
0.416643
0.012294
0.118638
0.0836555
0.573651
0.511713
0.47305
-0.0949285
0.0891181
-0.0106192
-0.158774
0.577037
0.575348
0.579297
0.580292
0.580948
-0.106456
-0.0603999
-0.111214
-0.0387676
-0.0423107
-0.0362942
0.544657
0.561689
-0.111058
0.57941
0.581549
0.581357
0.57451
0.580196
0.578411
0.0701639
0.0625731
0.0927364
0.283651
0.403338
0.720437
0.815881
0.68615
0.459227
0.220072
0.620268
0.685707
0.58816
0.74652
0.744387
0.763453
0.239609
0.0921215
0.247718
0.190283
0.570507
0.569157
0.561185
0.558303
0.574696
0.572796
0.577336
0.574283
0.57727
0.578695
0.0106891
-0.0105294
-0.0278184
-0.0881891
0.373182
0.63298
0.310205
0.341099
0.211432
0.0253732
0.0229097
0.0103836
0.0066225
0.0659131
0.0659667
0.115562
0.122635
0.102182
0.0815101
0.0628647
0.0599546
0.051794
0.56755
0.566235
0.572148
0.580757
0.520899
0.524734
0.491209
0.510895
0.497035
0.437857
0.472442
0.447868
0.0109165
-0.0392566
-0.0103031
0.079412
0.0841926
-0.0103013
-0.0553397
-0.0444241
-0.0467708
-0.0478663
0.0034994
0.00435521
-0.118163
-0.231576
1.02961
0.96933
0.169172
0.566253
0.572655
0.569454
0.574253
0.577339
0.57819
0.575953
0.572529
0.56229
0.564071
0.560426
0.561051
-0.050287
-0.188496
-0.0125942
-0.0799652
0.18521
0.675926
0.416476
0.35688
0.350781
0.572399
0.970078
0.765903
0.761992
0.785016
-0.298018
0.0987038
-0.230822
0.387444
0.209566
0.720344
0.769366
0.79005
0.738379
0.690377
-0.0667394
0.593266
-0.000578001
0.0446335
0.23724
0.129356
0.763359
0.727823
0.733418
0.750914
0.769963
0.73336
0.713431
0.708326
0.746948
0.751292
0.548145
0.31674
0.27211
0.233346
0.711484
0.589051
0.646678
0.559311
0.565429
0.568232
0.5668
0.549304
0.55663
0.552338
0.558135
0.561318
0.570427
0.570771
0.566187
0.568359
0.00776381
0.00594127
0.0234678
-0.0836106
-0.0718732
-0.131539
-0.0142177
0.123703
0.0874512
0.280475
0.386948
0.0999107
-0.0149591
0.0151285
0.0455517
0.224937
0.24987
0.130744
0.227205
0.206821
0.193171
0.296155
0.305229
0.0387563
0.0310524
0.0271684
0.0260727
0.0873226
0.160786
0.170197
0.067457
0.0604207
0.0223698
0.0274811
0.0361223
0.0335419
0.035611
0.0748397
0.00798172
0.0653564
0.071037
0.0700933
0.0699159
0.0644842
0.561029
0.562945
0.562732
0.570138
0.586741
0.601838
0.562279
0.542674
0.533687
0.536667
0.51043
0.520343
0.516748
0.529244
0.549587
0.558058
0.556321
0.558784
0.54216
0.543573
0.531087
0.534675
0.511211
0.492756
0.481124
-0.00836843
-0.0258607
-0.0082701
-0.00540303
0.00375339
0.0188725
0.0806457
0.092778
0.0771291
0.0796023
0.0695604
0.00104989
0.00672163
-0.0274408
0.0505863
-0.134854
-0.167425
-0.236649
0.93428
1.05298
0.859703
0.636298
0.64714
0.885952
0.972328
0.599109
0.781058
0.805421
0.621994
0.883947
0.571071
0.570637
0.568231
0.56772
0.568952
0.0383832
0.13887
0.148434
0.202607
0.317517
0.430889
0.355622
0.229279
0.362686
0.367939
0.671134
0.686817
0.634074
0.657685
0.655049
0.483205
0.561109
0.616657
0.568929
0.615033
0.637385
0.598105
0.62855
0.574174
0.530764
0.529307
0.476419
0.497105
0.475507
0.457583
0.560543
0.538382
0.548871
0.539653
0.558933
0.585077
0.580471
0.608136
0.61927
0.54433
0.504132
0.513879
0.542522
0.502811
0.51594
0.531582
0.269067
0.169071
0.252523
-0.0397809
0.0410006
0.0257178
-0.0212622
0.0244629
0.310578
-0.388169
-0.361252
-0.99411
0.533124
1.00148
0.716936
0.688786
0.765693
0.744436
0.747048
0.769767
0.776886
0.701043
0.719124
0.722905
0.67898
0.702792
0.724977
0.722921
0.567272
0.441709
0.432831
0.393215
0.268315
0.30181
0.504377
0.426758
0.353272
0.356896
0.519272
0.408191
0.474459
0.512896
0.444527
0.399593
0.603209
0.669947
0.660106
0.63553
0.550982
0.564243
0.589398
0.625519
0.652689
0.684539
0.557923
0.563683
0.564964
0.562462
0.559626
0.562556
0.562647
0.565166
0.566016
0.56892
0.567914
0.0144256
0.0258992
0.0169008
0.00944804
0.0354199
0.0293259
0.0726501
0.058885
0.0491953
0.0565722
0.0285193
0.0236799
0.0298036
0.0394055
0.150513
0.164208
0.147187
0.107576
0.292997
0.425373
0.494154
0.371856
0.266184
0.289829
0.314494
0.0458201
0.0765781
0.0610905
0.103368
0.0914281
0.0375044
0.0254621
0.0281305
0.0397246
0.0502332
0.0276421
0.0242366
0.0342832
0.0314699
0.0256439
0.0103126
0.544731
0.538333
0.539553
0.533763
0.532687
0.5462
0.550501
0.552193
0.557473
0.559383
0.550041
0.555391
0.558912
0.0629385
0.0147017
0.024519
0.0370677
0.0257974
0.0238948
0.0259842
0.163341
0.0889054
0.0944304
0.0521563
-0.0726807
-0.0163497
0.529306
0.52786
0.528805
0.755976
0.607351
0.527368
0.624067
0.729517
0.311969
0.511259
0.344159
0.924605
0.817362
0.96253
0.580906
0.281766
0.436216
0.486296
0.295615
0.36822
0.372885
0.262804
0.294383
0.325882
0.426022
0.30534
0.279918
0.0382707
0.226753
0.342434
0.323458
0.451325
0.514451
0.301559
0.222055
0.17635
0.663063
0.682538
0.70219
0.672063
0.696763
0.620042
0.611143
0.629169
0.63691
0.631586
-0.722445
-0.430484
-1.37466
-0.690156
-0.241067
0.562267
0.526513
0.803404
0.692003
0.756668
0.742148
0.702877
0.669009
0.68036
0.712928
0.412789
0.523008
0.497482
0.503349
0.40563
0.338922
0.638374
0.632445
0.667978
0.692298
0.660109
0.693291
0.555568
0.555248
0.554898
0.551373
0.549806
0.551942
0.111406
0.0823058
0.113809
0.0965021
0.075801
0.0637297
0.0635815
0.0528001
0.0477673
0.0439641
0.071377
0.0699042
0.205968
0.147359
0.0697318
0.100357
0.0414946
-0.0252351
-0.0434884
0.0555952
0.148329
0.138882
0.443018
0.693912
0.515631
0.684152
0.523309
0.578933
0.518993
0.509528
0.538562
0.421272
0.500479
0.261597
-0.240542
-0.149763
0.818434
0.837146
0.61895
0.4326
0.203827
0.392928
0.594057
0.530297
0.568836
0.637707
0.629791
0.0491162
0.116624
0.375477
0.603758
0.273481
0.26466
0.259748
0.4338
0.35851
)
;

boundaryField
{
    wall-4
    {
        type            zeroGradient;
    }
    velocity-inlet-5
    {
        type            zeroGradient;
    }
    velocity-inlet-6
    {
        type            zeroGradient;
    }
    pressure-outlet-7
    {
        type            fixedValue;
        value           uniform 0;
    }
    wall-8
    {
        type            zeroGradient;
    }
    frontAndBackPlanes
    {
        type            empty;
    }
}


// ************************************************************************* //
