/*--------------------------------*- C++ -*----------------------------------*\
| =========                 |                                                 |
| \\      /  F ield         | OpenFOAM: The Open Source CFD Toolbox           |
|  \\    /   O peration     | Version:  4.0                                   |
|   \\  /    A nd           | Web:      www.OpenFOAM.org                      |
|    \\/     M anipulation  |                                                 |
\*---------------------------------------------------------------------------*/
FoamFile
{
    version     2.0;
    format      ascii;
    class       volScalarField;
    location    "51";
    object      p;
}
// * * * * * * * * * * * * * * * * * * * * * * * * * * * * * * * * * * * * * //

dimensions      [0 2 -2 0 0 0 0];

internalField   nonuniform List<scalar> 
918
(
0.560311
1.19705
0.001505
0.559706
-0.0112945
1.16408
-0.499849
0.695414
0.540484
-0.0979826
-0.0308299
0.538064
1.0246
0.790565
-1.12041
-0.00194694
0.657454
-0.378835
0.539556
-0.0433601
0.723623
0.547047
0.550075
0.540657
0.607289
0.767683
0.905485
0.0205147
0.00741293
0.00381056
-0.0106025
-0.0367371
-0.0303954
1.04774
1.09882
1.12151
0.508493
0.336953
-0.366539
-0.435796
-0.428651
-0.543657
0.690431
0.68909
-0.193913
0.698174
0.702497
0.527587
0.539851
0.540757
0.541806
0.540775
0.542163
0.412639
-0.101213
-0.133847
-0.0777655
-0.0691427
0.0665448
-0.0328126
-0.0351776
-0.0286788
-0.0289182
0.45825
0.533032
0.530054
0.543343
0.552789
1.1366
1.10852
1.13466
1.04829
1.06483
1.00259
0.975257
0.811272
0.833037
0.775875
0.764436
-1.55499
-2.51135
-0.527857
-0.275749
-0.0103364
0.00112161
0.00759983
0.652781
0.652961
0.658376
0.664016
1.08624
-0.377852
-0.475643
0.539692
0.538495
0.546846
0.547543
0.54356
0.542651
-0.0341483
-0.031459
-0.0412991
-0.0416197
-0.0395976
0.71271
0.71161
0.541192
0.538203
0.559586
0.580655
0.572872
0.28451
0.611263
0.625184
0.59647
0.760641
0.753616
0.762829
0.878931
0.842618
0.942756
0.965844
0.0165884
0.000713928
-0.00908572
-0.0168953
-0.0146499
0.504367
0.496984
0.523873
0.511888
0.514366
0.252889
0.118444
0.422626
0.447929
-0.283328
-0.345701
-0.424755
-0.453399
-0.564952
0.613855
0.682335
0.679527
-0.207967
-0.134838
-0.265972
-0.0614383
-0.122765
0.517914
0.524879
0.519902
0.53539
0.529872
0.531828
0.544105
0.541182
0.542739
0.475112
0.598933
0.339069
0.304411
-0.23984
-0.151313
-0.240812
-0.0571359
-0.0528022
0.0801993
0.105464
0.0537332
0.0419521
-0.0457282
-0.0384653
-0.0418066
-0.0275489
-0.0278666
0.451123
0.440093
0.470836
0.478308
0.522305
0.523594
0.527295
0.52558
0.926039
0.948283
0.955951
0.929822
-3.50625
-6.29801
0.0509641
0.188174
-0.00549035
-0.00862366
0.00215382
-0.00399738
0.00130878
-0.00127953
0.00597569
0.00389048
0.00749438
0.00992043
0.645531
0.645899
1.00622
1.00984
0.984731
0.93649
0.527849
0.52994
0.535463
0.531334
-0.0269472
-0.0287447
-0.0264936
0.704478
0.709398
0.707785
0.246663
0.158252
0.334868
0.363519
0.638579
0.627499
0.63729
0.656311
0.692989
0.973243
0.991521
0.989735
0.998224
1.04232
1.05877
1.02405
0.484052
0.493906
0.488923
0.527029
0.524771
0.525691
0.521363
0.522757
0.52064
-0.032852
-0.414776
0.497185
0.515289
0.497601
0.502253
0.693273
0.770576
0.665203
0.673623
0.671102
0.00684801
-0.0512259
0.260522
0.227194
0.391428
0.42741
0.406594
0.897156
0.857768
0.907821
0.881054
0.842583
0.867909
-0.366445
-1.87241
-0.988108
0.539313
0.352707
0.440066
0.0239335
0.00675597
0.0118854
1.00323
1.07852
0.654746
0.826937
0.831622
0.731147
0.760888
0.815879
0.742501
0.776361
0.810604
0.791418
0.570683
0.510443
0.524251
0.83969
0.895489
0.129477
0.0702734
0.0260829
0.123966
0.18044
0.154991
1.03987
0.950205
1.02117
0.537957
0.538667
-0.000422821
-0.0115721
0.542867
0.542916
-0.00833831
0.00326933
0.423633
-0.829048
0.111914
0.531408
0.521451
0.538499
-0.0814607
0.365378
-0.0330486
0.0613325
0.00582072
0.535394
0.469177
0.428877
0.00655803
-0.0113459
-0.0371501
-0.20992
0.535628
0.533935
0.537967
0.538926
0.539596
-0.0115988
-0.00777152
-0.00573456
-0.035296
-0.0311069
-0.04151
0.502683
0.521141
-0.163624
0.538106
0.540233
0.540055
0.533285
0.538927
0.53717
-0.00240911
-0.00967941
-0.0111052
0.228568
0.357098
0.665472
0.754255
0.636597
0.410878
0.174449
0.567258
0.631365
0.536169
0.69086
0.678629
0.693581
0.177181
0.0272591
0.186216
0.127792
0.529267
0.527957
0.519709
0.51672
0.533362
0.531466
0.536032
0.533031
0.535982
0.537374
-0.0392518
-0.0627943
-0.0768241
-0.143591
0.320338
0.581995
0.2624
0.293014
0.153529
-0.0260773
-0.0263792
-0.0319808
-0.0386168
0.0156149
-0.00897247
0.0564829
0.057232
0.0297772
0.00276643
0.00762515
-0.00360537
-0.000265292
0.528454
0.526849
0.533261
0.542488
0.478707
0.482464
0.447786
0.46825
0.453661
0.393194
0.428154
0.403415
0.000967823
0.011052
0.00283063
-0.00726942
-0.00320156
-0.0215354
-0.019666
-0.0155459
-0.0121421
-0.0191402
-0.0313898
-0.0293903
-0.168646
-0.284033
0.992652
0.919124
0.135418
0.524801
0.531236
0.528012
0.532881
0.536006
0.536827
0.534554
0.531109
0.521546
0.523137
0.519863
0.520637
-0.0956535
-0.236095
-0.0648105
-0.136729
0.147466
0.629943
0.369014
0.305966
0.300875
0.527802
0.930295
0.717467
0.694035
0.708432
-0.337192
0.0556055
-0.272007
0.346274
0.170284
0.663406
0.713213
0.735541
0.682955
0.635631
-0.101674
0.559568
-0.0613982
-0.0115129
0.188301
0.0688624
0.691872
0.663059
0.66646
0.683454
0.700416
0.66914
0.652718
0.647345
0.679771
0.68327
0.497233
0.259832
0.211986
0.173268
0.647986
0.533441
0.587334
0.502847
0.524383
0.527043
0.525662
0.507471
0.51499
0.510566
0.516902
0.520312
0.529075
0.529504
0.524831
0.526981
-0.0435877
-0.0467946
-0.0212264
-0.13097
-0.121879
-0.183464
-0.056937
0.081121
0.0430914
0.240467
0.346184
0.0579008
-0.0538523
-0.0261431
0.0130018
0.184462
0.21039
0.0845542
0.173218
0.161499
0.144937
0.246562
0.251318
-0.0127047
-0.0169558
-0.0201083
-0.0218643
0.0324685
0.10228
0.112138
0.0104232
0.00460726
-0.0251502
-0.0246453
-0.0106487
-0.0148587
-0.0112005
0.022923
-0.0401176
-0.00806238
0.00754706
0.013197
0.0100415
0.00499849
0.52077
0.523077
0.522707
0.530013
0.548418
0.564556
0.520938
0.50069
0.491575
0.494566
0.467786
0.477992
0.473669
0.487322
0.508373
0.517682
0.515054
0.517806
0.500518
0.502187
0.488747
0.492443
0.467575
0.448781
0.436984
-0.0308664
0.00695404
-3.50477e-05
-0.0285513
0.000459338
-0.0121393
0.00300723
0.022143
0.00612304
0.00294594
-0.00717933
-0.0139401
-0.0130007
-0.0702344
0.0149116
-0.178435
-0.216222
-0.286024
0.894227
1.01792
0.81626
0.589617
0.607156
0.850014
0.935525
0.551814
0.741381
0.765395
0.588918
0.854398
0.529619
0.529227
0.52683
0.526306
0.527526
-0.00308459
0.100576
0.102161
0.162819
0.279443
0.392189
0.319148
0.193911
0.325132
0.328299
0.62234
0.635043
0.590595
0.61446
0.614902
0.431748
0.507567
0.559915
0.516964
0.568813
0.589693
0.545591
0.577808
0.528054
0.482664
0.478825
0.429387
0.449155
0.425802
0.408444
0.519699
0.49696
0.507522
0.497813
0.517301
0.541638
0.538255
0.570446
0.581415
0.501346
0.457569
0.466836
0.497231
0.458018
0.472965
0.489145
0.234007
0.135075
0.217873
-0.0705157
0.00462801
-0.00944617
-0.0572124
-0.00820299
0.27695
-0.417223
-0.392949
-1.02279
0.503635
0.962145
0.639965
0.613098
0.6973
0.679217
0.684165
0.701232
0.705414
0.638235
0.654358
0.656429
0.619207
0.642579
0.66261
0.659768
0.529503
0.393943
0.390347
0.341486
0.211781
0.24995
0.450136
0.37258
0.297459
0.298543
0.46518
0.352454
0.421454
0.45736
0.388493
0.342369
0.54617
0.611306
0.603139
0.577366
0.493506
0.507153
0.531249
0.566425
0.592355
0.623521
0.516446
0.52231
0.523554
0.521047
0.518304
0.521306
0.521503
0.524038
0.524747
0.527714
0.526741
-0.0336258
-0.0215095
-0.0345569
-0.0426627
-0.0109797
-0.0148557
0.028659
0.0150559
-0.000468626
0.00561005
-0.0207208
-0.0249966
-0.0200863
-0.0109152
0.106994
0.119617
0.103287
0.0637578
0.253831
0.384379
0.457458
0.333476
0.226328
0.249947
0.270998
-0.00121499
0.0266875
0.0137466
0.0522272
0.0433927
-0.0187871
-0.0233022
-0.0208823
-0.0138336
-0.00477577
-0.021323
-0.0235493
-0.0154182
-0.0194858
-0.019601
-0.0229997
0.502916
0.496449
0.498133
0.492022
0.490748
0.504944
0.509159
0.511123
0.516541
0.518777
0.508985
0.514655
0.5184
0.0039525
-0.0202915
-0.0237254
-0.0112496
-0.0155678
-0.0146298
-0.0167041
0.124651
0.0530729
0.0576174
0.011607
-0.118264
-0.0607565
0.492719
0.492662
0.485086
0.72221
0.571817
0.492349
0.589714
0.694889
0.276148
0.474589
0.308369
0.890668
0.785734
0.932166
0.544482
0.246135
0.405984
0.45362
0.263987
0.337036
0.33141
0.219005
0.250646
0.286091
0.38711
0.267519
0.243487
0.001014
0.190382
0.304052
0.285643
0.412087
0.474065
0.26625
0.187585
0.141605
0.609121
0.627979
0.643355
0.615988
0.636738
0.580111
0.568907
0.587226
0.59697
0.591811
-0.750404
-0.456989
-1.40282
-0.721301
-0.268264
0.534436
0.501667
0.770732
0.652773
0.702279
0.687082
0.645318
0.613139
0.632681
0.659302
0.354622
0.465947
0.441013
0.446093
0.347485
0.278854
0.578853
0.57345
0.607902
0.631489
0.601236
0.632176
0.51425
0.513933
0.513476
0.509764
0.508022
0.510331
0.0674654
0.0365849
0.0718936
0.0525098
0.0297772
0.0183196
0.00780446
-0.00191535
-0.00841969
-0.00944219
0.00441606
0.00794699
0.170918
0.110257
0.0305248
0.060277
0.000479682
-0.0681674
-0.0857773
0.0159916
0.110969
0.101627
0.406624
0.657725
0.477658
0.644987
0.486425
0.542248
0.474248
0.466041
0.492454
0.382614
0.462335
0.242221
-0.264917
-0.173473
0.790739
0.804855
0.586449
0.406588
0.174976
0.357475
0.550419
0.483161
0.520132
0.589212
0.578245
0.023334
0.0850595
0.360544
0.587895
0.240503
0.231467
0.225642
0.405496
0.326179
)
;

boundaryField
{
    wall-4
    {
        type            zeroGradient;
    }
    velocity-inlet-5
    {
        type            zeroGradient;
    }
    velocity-inlet-6
    {
        type            zeroGradient;
    }
    pressure-outlet-7
    {
        type            fixedValue;
        value           uniform 0;
    }
    wall-8
    {
        type            zeroGradient;
    }
    frontAndBackPlanes
    {
        type            empty;
    }
}


// ************************************************************************* //
