/*--------------------------------*- C++ -*----------------------------------*\
| =========                 |                                                 |
| \\      /  F ield         | OpenFOAM: The Open Source CFD Toolbox           |
|  \\    /   O peration     | Version:  4.0                                   |
|   \\  /    A nd           | Web:      www.OpenFOAM.org                      |
|    \\/     M anipulation  |                                                 |
\*---------------------------------------------------------------------------*/
FoamFile
{
    version     2.0;
    format      ascii;
    class       volScalarField;
    location    "29";
    object      p;
}
// * * * * * * * * * * * * * * * * * * * * * * * * * * * * * * * * * * * * * //

dimensions      [0 2 -2 0 0 0 0];

internalField   nonuniform List<scalar> 
918
(
0.335637
0.991882
0.0161205
0.33488
-0.0285726
0.95891
-0.724376
0.5089
0.315714
-0.305832
-0.285871
0.308142
0.819674
0.586061
-1.35065
-0.233027
0.460974
-0.603183
0.314701
-0.237321
0.545875
0.322359
0.325401
0.316
0.376016
0.566955
0.700684
-0.029453
0.00621377
-0.0314205
-0.0665985
-0.153927
-0.198199
0.842539
0.893642
0.916331
0.284449
0.111798
-0.582314
-0.65454
-0.644945
-0.772626
0.501069
0.504357
-0.389022
0.50873
0.519819
0.30308
0.315075
0.315995
0.317111
0.316031
0.317444
0.203877
-0.31304
-0.341092
-0.284786
-0.279395
-0.115849
-0.271022
-0.267283
-0.298965
-0.313701
0.237172
0.304883
0.302371
0.312985
0.319916
0.931432
0.903334
0.929473
0.843246
0.859682
0.797622
0.770161
0.60629
0.628231
0.572011
0.558367
-1.79015
-2.75592
-0.753006
-0.4979
-0.017133
-0.187756
-0.161727
0.450755
0.452734
0.461242
0.473263
0.857537
-0.599262
-0.733963
0.31481
0.313597
0.322037
0.322717
0.318724
0.317815
-0.278893
-0.29818
-0.0817802
-0.214407
-0.170043
0.533213
0.531342
0.316553
0.313588
0.327607
0.348348
0.339829
0.0742584
0.382254
0.399229
0.38755
0.553719
0.550325
0.558143
0.674299
0.638119
0.737612
0.760862
-0.0135705
-0.00808528
-0.24546
-0.223962
-0.247926
0.28044
0.2733
0.298695
0.287754
0.290149
0.0269957
-0.109344
0.198317
0.222962
-0.491158
-0.55598
-0.661134
-0.677242
-0.788123
0.367551
0.490739
0.491212
-0.408178
-0.326821
-0.46704
-0.253081
-0.316701
0.293596
0.300397
0.295487
0.310793
0.305323
0.307248
0.319308
0.316409
0.317946
0.267284
0.389881
0.131724
0.0992132
-0.461573
-0.362178
-0.455015
-0.271341
-0.268326
-0.110063
-0.0933392
-0.132456
-0.126346
-0.261438
-0.266088
-0.263209
-0.332729
-0.333074
0.229967
0.219223
0.248828
0.255942
0.29632
0.297219
0.299964
0.29846
0.720869
0.743364
0.750819
0.724443
-3.76069
-6.57219
-0.167696
-0.0280603
-0.040657
-0.0310737
-0.0178893
-0.0337414
-0.0133012
-0.0121507
-0.107663
-0.109783
-0.109957
-0.130772
0.436308
0.436802
0.773609
0.768163
0.759551
0.710472
0.302812
0.304979
0.310545
0.306395
-0.345121
-0.322134
-0.333541
0.517548
0.525423
0.525426
0.0386813
-0.0451477
0.120783
0.147919
0.421937
0.404972
0.419924
0.450363
0.487332
0.768392
0.78666
0.784816
0.793163
0.837131
0.853475
0.818949
0.261252
0.270424
0.265641
0.301967
0.299636
0.300582
0.295686
0.297392
0.295053
-0.262418
-0.648344
0.282485
0.298756
0.271238
0.282589
0.44297
0.513949
0.47201
0.48039
0.482049
-0.186498
-0.245754
0.0601147
0.0336679
0.17333
0.207618
0.188145
0.692181
0.652264
0.7024
0.675739
0.636887
0.663207
-0.600477
-2.11941
-1.22818
0.329244
0.139237
0.22881
-0.139431
-0.134946
-0.123353
0.757344
0.836936
0.444869
0.606101
0.618072
0.523377
0.553013
0.61226
0.537561
0.572601
0.606852
0.585071
0.326258
0.293727
0.290941
0.582525
0.638237
-0.0726794
-0.125699
-0.171865
-0.0754562
-0.0179607
-0.045677
0.80479
0.697259
0.771406
0.313306
0.313987
-0.0702097
-0.114269
0.31807
0.318086
-0.084495
-0.211633
0.210015
-1.06021
-0.0851289
0.306474
0.29694
0.313707
-0.295866
0.166817
-0.252125
-0.116519
-0.156796
0.305999
0.246339
0.208637
-0.0995899
-0.278371
-0.295679
-0.420216
0.31097
0.309301
0.31318
0.314222
0.314856
-0.135658
-0.122888
-0.0932585
-0.298902
-0.192503
-0.229631
0.278756
0.295255
-0.377037
0.313336
0.315442
0.315279
0.308401
0.314072
0.312306
-0.241681
-0.227826
-0.303644
0.0247012
0.141146
0.458203
0.555292
0.422439
0.195393
-0.0443049
0.357622
0.423354
0.325305
0.484609
0.482931
0.49903
-0.0233793
-0.170068
-0.014491
-0.0696875
0.304378
0.303015
0.295215
0.292379
0.308595
0.306681
0.311273
0.308195
0.311131
0.312559
-0.251645
-0.269388
-0.292197
-0.350735
0.125519
0.380309
0.0576561
0.0850942
-0.0418963
-0.274708
-0.285293
-0.238601
-0.259041
-0.170786
-0.177475
-0.12804
-0.124834
-0.169936
-0.16766
-0.177033
-0.19788
-0.196094
0.299718
0.298766
0.304956
0.31205
0.255501
0.259586
0.226048
0.245351
0.231046
0.174831
0.208284
0.183285
-0.0815474
-0.125019
-0.0707531
-0.272914
-0.192559
-0.272816
-0.218231
-0.31358
-0.199064
-0.198367
-0.355402
-0.341005
-0.381503
-0.495932
0.758902
0.703391
-0.105862
0.300263
0.3066
0.303455
0.30808
0.311219
0.312141
0.309882
0.306434
0.295932
0.297769
0.294051
0.294386
-0.317556
-0.453831
-0.278459
-0.345619
-0.0808576
0.414129
0.15453
0.0954103
0.0900728
0.307971
0.703653
0.501554
0.502783
0.527375
-0.563257
-0.166124
-0.495963
0.122485
-0.0544336
0.457953
0.507329
0.528057
0.4763
0.428027
-0.334596
0.325224
-0.264659
-0.221075
-0.0304207
-0.135019
0.501323
0.465423
0.469935
0.486405
0.505323
0.47063
0.448572
0.444828
0.48305
0.488737
0.281023
0.0570973
0.012598
-0.0253238
0.448725
0.322852
0.380914
0.295112
0.299176
0.30207
0.300604
0.283529
0.290698
0.286532
0.291961
0.295092
0.304333
0.30465
0.300115
0.302387
-0.254048
-0.263719
-0.232295
-0.3438
-0.333969
-0.385196
-0.275901
-0.140857
-0.174386
0.0141443
0.1218
-0.166516
-0.282895
-0.252738
-0.224669
-0.0398366
-0.014992
-0.115255
-0.0284412
-0.0466572
-0.0561916
0.0397208
0.0474142
-0.248065
-0.215489
-0.233483
-0.238953
-0.147002
-0.0904431
-0.072665
-0.246011
-0.194751
-0.305649
-0.324576
-0.237247
-0.228492
-0.218608
-0.18789
-0.320829
-0.272794
-0.276145
-0.290143
-0.238908
-0.245875
0.294326
0.295845
0.295892
0.304162
0.318257
0.332982
0.297167
0.276825
0.268196
0.271081
0.245894
0.255246
0.251318
0.26382
0.283293
0.291001
0.290152
0.292545
0.275824
0.277641
0.264967
0.267956
0.245582
0.228117
0.217127
-0.267492
-0.195233
-0.26423
-0.217466
-0.135243
-0.174218
-0.185187
-0.246823
-0.226573
-0.19836
-0.16088
-0.386942
-0.347644
-0.293965
-0.218566
-0.40143
-0.433914
-0.502791
0.667226
0.779583
0.594753
0.376519
0.380661
0.61402
0.705409
0.344478
0.515813
0.545035
0.339949
0.599907
0.304976
0.304618
0.302271
0.301691
0.302984
-0.233652
-0.134086
-0.119885
-0.0689968
0.0501464
0.165734
0.0724532
-0.051762
0.0843747
0.0917415
0.408768
0.425283
0.370262
0.395215
0.393061
0.220469
0.297351
0.352167
0.30638
0.350398
0.372533
0.333793
0.363991
0.310989
0.268964
0.267713
0.21292
0.234096
0.21155
0.193553
0.294374
0.27282
0.282948
0.273774
0.293133
0.320758
0.315078
0.34179
0.353524
0.279135
0.239818
0.249064
0.27667
0.238385
0.251585
0.266624
-0.00437977
-0.105567
-0.0171656
-0.308487
-0.225642
-0.241681
-0.287704
-0.244015
0.0425057
-0.656653
-0.629936
-1.26446
0.265609
0.73366
0.456667
0.427586
0.500764
0.478715
0.481341
0.506056
0.512924
0.438196
0.455475
0.459731
0.412375
0.43641
0.46046
0.45815
0.294626
0.173046
0.164221
0.125102
0.00218175
0.0343352
0.23856
0.160288
0.0875239
0.0926672
0.256102
0.146651
0.212099
0.250301
0.182142
0.1382
0.337925
0.405692
0.396896
0.371012
0.287127
0.29923
0.325378
0.360885
0.387645
0.421829
0.291877
0.297514
0.298817
0.29644
0.293491
0.296329
0.296455
0.298954
0.299828
0.302777
0.301738
-0.254413
-0.235518
-0.255887
-0.264233
-0.228153
-0.23495
-0.188879
-0.193459
-0.214243
-0.207134
-0.237443
-0.237833
-0.234276
-0.225332
-0.10362
-0.0873749
-0.101099
-0.146195
0.027278
0.163587
0.225812
0.108956
-0.000137962
0.0291749
0.0574904
-0.21975
-0.167621
-0.179786
-0.144171
-0.158819
-0.295686
-0.326654
-0.324817
-0.22568
-0.265593
-0.378219
-0.363454
-0.374311
-0.372152
-0.34431
-0.352858
0.279044
0.272645
0.273662
0.2681
0.266984
0.280241
0.284396
0.286022
0.291112
0.292762
0.283797
0.288881
0.292218
-0.366886
-0.423854
-0.410159
-0.383807
-0.447139
-0.438738
-0.40772
-0.110436
-0.183552
-0.178106
-0.219646
-0.34157
-0.286508
0.250615
0.248883
0.261767
0.4753
0.32886
0.247559
0.342339
0.445529
0.0355095
0.23567
0.0666351
0.64823
0.537061
0.680578
0.306457
0.0112355
0.16492
0.215604
0.0234452
0.0946331
0.104781
-0.00654453
0.0254381
0.055649
0.155113
0.0347403
0.00792489
-0.237938
-0.0533348
0.0721711
0.0513145
0.185729
0.250746
0.0202827
-0.0553066
-0.09969
0.399957
0.42009
0.438778
0.40853
0.433416
0.355528
0.346855
0.365309
0.373885
0.367767
-0.991891
-0.699087
-1.64409
-0.956748
-0.505912
0.299123
0.260306
0.533722
0.42468
0.491952
0.476862
0.437345
0.402352
0.413576
0.4467
0.148568
0.258789
0.232387
0.239666
0.142464
0.0760812
0.374331
0.36758
0.406277
0.429934
0.394963
0.42918
0.289561
0.289194
0.288908
0.28568
0.284019
0.285974
-0.138972
-0.169495
-0.144024
-0.160797
-0.181205
-0.18776
-0.349016
-0.371693
-0.393247
-0.425531
-0.366873
-0.330665
-0.073604
-0.129142
-0.202232
-0.17387
-0.23102
-0.293121
-0.311977
-0.214705
-0.127167
-0.134426
0.16828
0.419472
0.243899
0.412721
0.249939
0.306531
0.254347
0.246812
0.277743
0.150012
0.225852
-0.00253712
-0.50873
-0.416277
0.550463
0.570104
0.359007
0.171533
-0.0588634
0.129248
0.323056
0.261471
0.301131
0.369668
0.362986
-0.219274
-0.152139
0.108504
0.336116
0.00282031
-0.00473536
-0.00971201
0.16377
0.087759
)
;

boundaryField
{
    wall-4
    {
        type            zeroGradient;
    }
    velocity-inlet-5
    {
        type            zeroGradient;
    }
    velocity-inlet-6
    {
        type            zeroGradient;
    }
    pressure-outlet-7
    {
        type            fixedValue;
        value           uniform 0;
    }
    wall-8
    {
        type            zeroGradient;
    }
    frontAndBackPlanes
    {
        type            empty;
    }
}


// ************************************************************************* //
