/*--------------------------------*- C++ -*----------------------------------*\
| =========                 |                                                 |
| \\      /  F ield         | OpenFOAM: The Open Source CFD Toolbox           |
|  \\    /   O peration     | Version:  4.0                                   |
|   \\  /    A nd           | Web:      www.OpenFOAM.org                      |
|    \\/     M anipulation  |                                                 |
\*---------------------------------------------------------------------------*/
FoamFile
{
    version     2.0;
    format      ascii;
    class       surfaceScalarField;
    location    "29";
    object      phi;
}
// * * * * * * * * * * * * * * * * * * * * * * * * * * * * * * * * * * * * * //

dimensions      [0 3 -1 0 0 0 0];

internalField   nonuniform List<scalar> 
1300
(
3.75095
5.62643
-5.03919
3.75095
-5.19919
5.62643
-4.46065
4.46065
-1.08549
1.08549
1.87646
1.87449
-2.97761
2.97761
-2.35866
2.35866
-2.56318
2.56318
-5.24642
5.24642
-5.06796
5.06796
4.6704
-4.6704
-4.2307
4.2307
-1.47589
1.47589
-3.89315
3.89315
3.16981
-3.16981
-2.68608
2.68608
-0.293656
0.293656
-0.553554
4.30451
3.1974
3.1974
-2.12688
2.12688
-4.86201
4.86201
6.21815
-6.21815
7.18901
-7.18901
-2.14982
-3.38983
1.6332
-9.80814
-3.56599
-3.56599
-8.44041
8.44041
-2.81398
2.81245
2.94266
-2.94266
-1.78695
1.78695
-4.40123
-0.0594215
-4.40123
4.45678
0.00386635
4.45678
-1.20962
0.124129
-1.20962
3.96579
-3.96579
0.920744
0.164743
0.920744
3.06459
-3.06459
-1.87711
3.75357
1.87384
-1.87184
6.17635
-1.87911
3.75361
-5.91047
5.91047
-3.2159
0.238292
-3.2159
2.77076
0.206847
2.77076
-6.68943
6.68943
-2.47714
0.118481
-2.47714
2.26233
0.096337
2.26233
2.86163
-2.86163
-2.66133
0.0981482
-2.66133
2.45609
0.10709
2.45609
0.353553
5.27288
-5.97998
8.79244
-5.27288
0.026459
5.20845
0.0379703
5.20845
-5.10586
0.0378941
-5.10586
5.01191
0.0560523
5.01191
4.76253
-0.0921294
4.76253
-4.78433
0.113927
-4.78433
-2.84293
-4.83469
-4.92682
0.696128
-4.92682
-1.47678
0.000893711
-1.47678
1.43026
0.0456284
1.43026
-3.55053
3.55053
-4.25698
0.363838
-4.25698
3.12439
0.0454209
3.12439
1.86854
1.88241
5.61949
-5.61949
2.44969
-2.38017
-0.305916
-2.38017
-3.05766
-4.13135
3.05766
-0.37158
-0.563342
0.269686
-0.563342
3.15918
0.0382168
3.15918
2.32427
0.131822
-2.32427
0.197388
3.21474
-3.21474
1.51011
0.616774
1.51011
-5.56804
5.56804
4.95286
0.059048
-4.95286
0.0908542
6.15646
0.0616895
6.15646
-6.19956
-0.0185851
-6.19956
2.05586
-5.44569
-4.04107
3.73594
0.494752
-3.73594
0.169954
2.9125
0.0301555
2.9125
-2.92191
2.92191
-2.98278
0.0401233
-2.98278
-2.18946
0.402508
-2.18946
1.48376
0.303193
1.48376
-4.2751
-0.126127
-4.2751
-4.38858
0.131599
4.38858
0.0681986
1.05093
-1.05093
-1.32006
0.110446
-1.32006
-4.11286
-0.162235
4.11286
-0.147073
-3.84449
-0.121298
-3.84449
-3.02336
0.0405767
3.02336
0.0412285
3.11238
0.0468049
-3.11238
0.0477905
-1.87084
3.75325
-1.88011
3.75395
-5.52708
-0.383391
-5.52708
6.21549
-0.305022
6.21549
3.55118
0.341963
-3.55118
0.335284
2.59099
0.179772
2.59099
-6.67359
-0.0158415
-6.67359
6.63867
0.0507637
6.63867
2.5006
0.0903915
-2.5006
0.0234533
2.22229
0.04004
2.22229
2.86839
-0.00676349
2.86839
-2.86249
0.000858103
-2.86249
2.80397
-2.80397
2.73689
0.0670823
-2.73689
0.0755557
-11.1328
11.1142
-0.0350804
-11.0977
5.17337
5.17337
4.19353
0.569001
4.19353
-4.99837
0.214038
-4.99837
2.21803
-6.2591
4.62665
-7.46958
4.56594
-14.3741
3.37521
-8.2099
6.19173
-6.19173
5.664
0.527735
-5.664
0.737173
-1.50193
0.0251446
-1.50193
-2.94046
-0.610069
-2.94046
4.20773
-0.657202
4.20773
-3.02936
3.02936
-3.07832
0.0489557
3.07832
0.0460666
2.26411
-0.0418243
-2.26411
-0.116057
0.744331
0.176413
-0.744331
0.180989
3.43461
-0.219871
3.43461
-3.01811
-0.196629
-3.01811
-1.50944
0.00751131
1.50944
0.000671521
-5.81614
0.248099
-5.81614
-11.1907
0.0930202
-11.1528
-6.10654
-6.10654
2.33386
11.1263
-2.88506
0.022574
2.88506
0.0274434
2.9765
0.0528614
-2.9765
0.0545976
-2.86476
0.0607908
2.86476
0.0571455
-2.56707
0.377606
-2.56707
-1.0682
1.0682
-1.24818
0.179978
1.24818
0.235579
1.28891
-0.23798
1.28891
1.37919
0.0510665
-1.37919
0.0591316
-3.73458
-0.109916
-3.73458
6.45452
-0.239023
6.45452
-2.91378
-0.10433
2.91378
-0.045393
-0.0333359
11.1475
-5.14003
0.0341747
5.14003
-11.2092
11.2434
-3.24065
0.673587
3.24065
0.952878
5.28925
0.278787
-5.28925
0.290884
6.48863
0.150042
-6.48863
0.296898
-2.44817
-0.49229
-2.44817
-4.9387
-0.588385
4.9387
-0.730968
-11.4754
-0.202294
11.6777
-11.4193
6.01843
0.138028
-6.01843
11.3814
-0.985968
-0.0649638
0.985968
0.0822355
1.59956
-0.310644
1.59956
3.62868
-0.19407
-3.62868
-0.105892
-6.60231
-0.0712796
6.60231
-0.147797
-2.00823
-0.439939
2.00823
-0.408672
-4.26694
4.30515
1.90941
-1.46475
-3.98094
-5.5961
1.85192
1.90133
4.30161
-9.25026
-5.12381
-9.08031
7.26703
-6.97615
-9.27494
9.18281
7.59426
-7.71556
-5.78531
5.83137
6.4816
-6.44037
1.87895
1.87462
7.91107
-7.67277
-15.6575
15.2741
7.1604
-7.04192
15.7718
-15.7877
-17.8398
17.9898
-5.73141
5.82956
-6.71579
6.71664
-6.8988
6.85341
-1.69371
-5.77587
13.2052
-12.5091
6.81568
-7.12159
-8.49555
8.85939
3.38236
0.922789
3.42917
-1.88233
3.76128
-1.87128
3.78069
4.43076
-6.12447
1.82834
-5.80928
3.75971
3.05597
-3.38813
-2.20797
-5.91804
5.9482
-5.82238
5.87953
8.91739
-8.97681
-1.88501
3.75964
-1.86894
3.77027
-3.42525
-2.36006
3.37983
0.921777
7.46239
5.74281
-7.95714
-1.12316
-7.81933
7.62526
-8.09191
7.89528
-0.442666
5.82097
-5.37831
4.41934
-1.5578
7.37877
5.70924
5.92327
5.86708
-5.5883
1.10907
-6.48738
-6.39652
-2.5509
2.66135
2.50599
-2.34125
5.96169
1.63257
5.81461
-5.55364
-2.16192
-5.66355
3.82116
2.01021
3.87012
4.07618
2.40542
4.11675
3.03092
-3.03544
0.00451716
-3.05619
6.08711
0.724203
-5.41625
-4.49447
4.91989
2.99118
5.12673
-5.48976
-2.18301
-5.15448
-9.53761
-6.11984
-10.126
10.102
5.17208
9.79696
-11.9634
11.8156
4.12785
3.03255
4.22418
-4.79815
-2.24377
-4.7747
11.7061
-2.6495
-9.05659
-10.2904
-7.54936
10.2396
5.53219
10.884
7.10581
11.1809
4.47984
7.22626
-10.012
2.46267
-3.87244
-1.85897
-3.79688
3.70338
2.12618
3.81047
-4.21136
-2.50443
-4.18878
-4.27721
-2.62159
4.28397
2.43267
-4.35995
-3.73197
4.46428
2.38913
4.79664
-9.92045
3.41326
-9.18913
-9.43161
-3.07747
-8.69444
5.58426
1.38457
-6.96883
-0.540208
8.55746
-5.50149
6.34949
-3.96527
-3.15632
-4.08133
-6.78687
-1.70868
-6.65527
-8.8824
8.39011
-9.19212
8.53492
12.7147
-5.71111
-7.00359
-3.96796
-2.47241
3.92017
-0.490998
-3.7118
3.71632
0.0494762
3.83017
4.75295
4.26196
-3.88731
-1.93508
-3.83271
3.83334
2.04619
3.89413
6.72516
2.19223
6.72903
-6.43724
-2.53957
-6.56337
9.09004
-8.68753
2.93042
-2.92291
5.27298
2.62231
-5.0531
-2.76622
6.16896
-3.10252
-3.06643
-12.213
10.5629
1.65003
-4.8342
-0.414861
-0.121205
-5.50023
-3.77471
5.3863
0.536975
11.0999
7.32521
-5.51332
5.76142
6.16435
6.2234
-0.173126
5.84253
-5.16895
5.35249
-2.45487
-2.89762
5.30355
-5.46579
-1.25982
-5.31701
4.05719
0.348827
1.73666
-1.46697
-2.01394
-0.53696
-1.95481
1.48404
1.02195
1.66045
0.973651
1.68769
-2.93776
0.529428
2.40833
-1.96411
-1.81182
-3.69111
-1.01208
4.70319
5.56006
2.0652
-5.45417
-0.209387
2.72932
-2.68369
-0.809204
-2.88191
2.09011
-2.89931
-3.57373
-1.89755
5.47128
-3.3708
-0.461908
3.31794
0.55218
-3.8252
-2.09285
3.78507
0.331678
-3.12411
6.19002
-3.06592
-5.05919
2.52909
3.55802
4.5393
-4.79035
2.44641
2.34394
-1.23233
4.21612
0.910618
4.39589
-6.72206
4.53905
5.72316
3.13623
-6.06512
0.910641
-5.81142
8.46919
-7.26596
-1.20323
4.11364
4.35556
7.18659
5.5281
-5.75322
12.9398
-1.13072
-6.13524
6.94214
-3.80591
4.74435
-8.55025
-10.2724
4.13721
-9.22482
10.9624
-1.73756
-3.6136
-8.34977
12.8384
-1.20817
-11.6303
8.58879
-4.20286
-4.62408
8.82693
-6.85236
6.86784
-1.92639
-4.94145
-10.1022
-5.68549
10.1735
1.64211
-10.6353
13.098
-3.40907
3.2295
0.994681
3.26954
3.26969
-5.40727
2.13758
3.58267
-5.50907
2.11918
-7.52645
-7.73844
13.1054
-5.36692
-10.8159
-10.3549
-0.461051
2.5864
10.5116
-9.6922
7.34067
2.35153
3.31041
0.583712
-3.3775
-0.419384
0.275455
4.55859
-4.83404
4.08593
4.21775
3.40845
1.15014
3.83951
2.10869
-3.86695
-0.321832
-4.14314
1.52155
-1.71047
-3.64361
5.16515
-4.07587
0.432267
-2.72831
-3.52196
6.25027
-4.58729
3.04026
3.14976
5.08645
-4.90864
1.38668
-2.40467
-2.50397
2.6892
-4.39966
1.93862
3.22653
4.32775
0.595789
7.34712
5.75824
-8.7317
-0.457433
11.501
-10.3779
2.82166
8.35923
-10.1623
-0.192524
-8.88696
0.138141
-5.63963
-6.83069
5.06418
-6.77287
-3.48607
6.13632
0.592704
-6.20452
-0.450748
-6.02948
-2.85292
-6.46942
-3.06358
-6.12855
-8.81679
-1.65149
-7.1653
6.73862
-6.67498
-3.45101
7.40595
1.12898
-7.40756
7.34259
-7.48918
7.17854
0.0944993
3.62182
4.35646
1.88404
-2.38949
4.27354
-5.06388
7.25611
-8.51859
3.45471
4.02481
-6.56438
-4.49378
5.04663
4.04341
5.34982
8.96775
-10.4887
1.52096
-10.8213
12.1402
-1.31886
-16.6107
5.78936
-7.64292
2.66959
0.260833
2.69473
0.668338
2.4156
-3.08394
-2.25457
-2.2539
-2.33075
-3.39717
5.72792
1.15046
-3.39767
2.24721
-3.47535
4.62581
-0.0726614
-3.32501
5.26841
-2.85281
5.52925
-3.54801
1.98123
3.31615
5.65576
-2.33961
4.32805
-1.70575
1.83534
-4.17495
-1.56183
-2.98355
5.10973
-3.26672
3.69899
-0.275684
3.97468
-4.08092
0.978399
-0.672468
3.54528
3.74267
4.28217
-3.13203
2.95921
-4.66496
-1.21574
-4.06917
-0.84264
-0.288668
-3.8029
4.09157
6.06779
-6.35646
-5.26192
9.58037
-4.31845
7.72931
-5.40561
-2.3237
-4.28003
-4.40751
3.90242
1.94011
9.66942
0.212912
-5.61853
-4.95603
-4.00316
3.21818
2.1343
-1.94106
3.59109
2.06227
-0.325605
0.583412
1.07704
1.85486
-1.27144
0.208943
1.64591
-1.25803
1.99838
0.730937
-2.04945
0.0946372
-1.39483
3.48494
1.0135
-2.03546
0.764011
1.04831
-3.50318
4.82825
-2.48359
-2.34465
5.87656
1.15618
-3.63978
4.16083
-3.812
2.32571
-3.3378
-1.31406
-5.12606
-3.49349
-2.51029
4.7575
-3.21763
5.28283
1.18377
-5.07344
6.25721
-3.56301
1.66546
-3.05597
3.78691
-1.0628
-1.99317
2.77552
2.69576
-2.92215
0.0402402
-0.146623
2.31593
-2.46256
-0.58338
-2.54749
-4.57151
4.90318
-2.10745
4.55386
2.16608
-1.91433
6.46819
1.81156
-3.72589
-3.24763
-3.70954
-1.38195
3.15736
-0.51921
-4.25549
-5.46066
4.1651
0.230791
-6.88958
7.70914
-0.819565
-3.8984
-0.640653
4.75429
-6.01348
0.504411
-3.8943
3.81484
4.72546
4.95625
-11.4295
-0.200751
-6.25742
1.17448
-7.4319
5.53004
-3.63147
7.76867
-10.4373
6.9863
-9.30834
6.56544
-0.866456
6.21485
-4.07726
2.84174
-8.52723
-6.88512
5.51647
-2.48392
6.51115
-2.93395
9.4451
-6.34301
4.7954
4.6497
-0.982496
-3.09884
-4.92428
3.94179
-0.128882
3.14066
4.97477
-2.86608
4.65294
2.25116
-4.65583
-2.14851
-6.4963
1.84047
-3.34653
-1.91406
3.75453
3.1724
3.75611
1.25056
-3.33672
8.82618
-9.28723
-3.45926
-3.37144
4.65624
-0.714457
4.13971
-7.51115
-1.49993
4.88666
-0.823603
-4.06305
0.824451
-4.31052
1.65252
-5.96305
5.12034
-5.57109
2.19892
-9.84184
-5.20864
-5.1264
-2.2404
-5.24878
-7.64519
5.40479
-1.85583
5.48676
-8.64418
7.82058
-3.49599
8.90078
-5.43138
-1.03804
5.84005
1.33849
10.2393
0.1804
-4.67418
-1.91337
3.99307
-2.07969
1.30481
-3.6225
0.370567
2.454
3.42256
-6.51119
-0.053188
-4.72736
-3.92956
7.97297
5.65081
11.7186
1.22989
9.1716
-1.19862
10.4015
4.1512
4.38678
-3.06012
4.58108
1.03145
4.48616
-0.844658
2.82589
1.85007
1.85097
0.832719
2.29597
1.4467
3.27437
0.190429
-2.06347
4.63841
-8.64157
-0.980116
-8.07256
1.11025
5.72753
-4.61729
3.13778
-1.00348
1.05809
0.101031
-1.62803
1.527
-2.79659
-1.95364
-0.307725
-1.59878
2.36279
1.88616
-2.05507
-0.741525
0.311911
-3.80541
3.02588
-2.98564
-0.289886
5.96733
-2.73894
0.276382
-1.07348
-2.27111
-2.80807
2.71343
6.17631
0.291881
3.11039
5.19507
3.10222
0.236142
3.95237
-5.68994
-3.57407
-5.89069
-0.360652
4.39364
1.45294
9.05866
6.10264
5.38818
-2.12296
-11.4102
6.57629
-1.99521
5.25743
-1.19437
-4.76867
4.97037
2.28574
-5.56307
-0.00801706
-4.77669
-6.7719
-0.539318
8.35989
-9.69995
8.66191
5.809
1.35631
-4.41268
-0.713719
4.2327
0.154074
10.5556
-1.12462
-6.82253
7.94715
-4.60291
3.6228
0.843574
2.74752
2.37057
1.36709
-5.45544
-10.0727
-1.9125
-1.59068
-4.25715
0.446043
-2.3322
6.25834
-2.63554
3.93464
5.31161
6.3697
-2.15622
-4.20024
6.47467
-2.54003
3.82967
)
;

boundaryField
{
    wall-4
    {
        type            calculated;
        value           uniform 0;
    }
    velocity-inlet-5
    {
        type            calculated;
        value           uniform -3.75095;
    }
    velocity-inlet-6
    {
        type            calculated;
        value           uniform -5.62643;
    }
    pressure-outlet-7
    {
        type            calculated;
        value           nonuniform List<scalar> 8(5.03919 5.19919 5.53965 8.17494 7.67762 6.09693 6.84468 7.94115);
    }
    wall-8
    {
        type            calculated;
        value           uniform 0;
    }
    frontAndBackPlanes
    {
        type            empty;
        value           nonuniform 0();
    }
}


// ************************************************************************* //
