/*--------------------------------*- C++ -*----------------------------------*\
| =========                 |                                                 |
| \\      /  F ield         | OpenFOAM: The Open Source CFD Toolbox           |
|  \\    /   O peration     | Version:  4.0                                   |
|   \\  /    A nd           | Web:      www.OpenFOAM.org                      |
|    \\/     M anipulation  |                                                 |
\*---------------------------------------------------------------------------*/
FoamFile
{
    version     2.0;
    format      ascii;
    class       volVectorField;
    location    "29";
    object      U;
}
// * * * * * * * * * * * * * * * * * * * * * * * * * * * * * * * * * * * * * //

dimensions      [0 1 -1 0 0 0 0];

internalField   nonuniform List<vector> 
918
(
(0.985168 -0.000495082 0)
(0.00500837 2.96625 0)
(-0.0516031 1.32581 0)
(0.979699 0.00215084 0)
(0.0115693 1.35337 1.32215e-19)
(-0.00703946 2.94879 -2.04188e-18)
(0.836185 1.17975 6.37177e-19)
(0.361316 0.165358 -1.12601e-20)
(0.999905 -0.00029337 0)
(0.0650035 0.856538 0)
(0.0136023 0.666346 0)
(0.733488 -0.00908234 0)
(0.0111135 2.93033 0)
(0.00250889 2.79461 0)
(-0.0174948 3.15879 9.86391e-19)
(-0.0698639 1.28959 1.97808e-19)
(0.450095 0.0609937 7.17792e-19)
(0.188832 1.20837 5.32623e-19)
(0.962775 0.00500778 0)
(-0.0446223 0.76706 0)
(0.0901599 0.202989 -5.43541e-19)
(1.00198 -0.00498553 0)
(1.00021 -0.00980492 0)
(0.975708 -0.00644055 0)
(0.604904 -0.0448594 0)
(0.0162648 2.63742 0)
(-0.0149059 2.91006 7.21496e-19)
(-0.120908 1.21298 0)
(-0.158757 1.46314 0)
(-0.0750823 1.27685 0)
(-0.0175213 2.21329 0)
(0.085166 1.43099 -1.04324e-19)
(0.038034 1.06386 0)
(-0.0206191 2.98759 -7.21019e-23)
(-0.0166946 3.0053 1.58705e-18)
(0.00210604 3.0002 0)
(0.870169 -0.00933274 0)
(0.404807 0.941158 3.59459e-20)
(0.816774 1.19645 -8.55776e-19)
(0.966623 1.03435 8.25576e-19)
(0.685622 1.29031 -1.48016e-19)
(0.68309 1.27899 8.33505e-19)
(0.402552 0.257618 1.09857e-20)
(0.389667 0.143488 0)
(1.15227 0.558588 0)
(0.363326 0.258207 5.05267e-20)
(0.316969 0.16919 -5.24365e-20)
(0.919642 -0.00750359 0)
(1.00028 0.000139719 0)
(0.999913 0.000334137 0)
(1.00364 -0.00778609 0)
(1.00096 -0.000937491 0)
(1.00017 2.22051e-05 0)
(0.0831567 1.78401 -3.88953e-19)
(0.037421 1.00993 0)
(0.0803704 0.928208 0)
(0.02359 0.942855 0)
(0.0281183 0.786328 0)
(0.0276403 1.99356 0)
(0.0073913 0.810983 0)
(-0.000158626 0.695299 0)
(-0.00767115 0.765953 0)
(-0.0123323 0.634137 0)
(0.83476 -0.0142299 0)
(0.852996 0.0261268 0)
(0.767751 7.86468e-05 0)
(0.827364 0.0338967 0)
(0.702129 -0.0152928 0)
(0.0146962 3.0004 7.50794e-19)
(0.011518 3.00796 0)
(0.00612773 3.00281 0)
(0.0135445 2.99734 8.42373e-24)
(0.00798598 2.95847 -1.11586e-18)
(0.0144747 2.98203 0)
(0.0107983 2.90365 0)
(0.0250462 2.93045 1.57038e-24)
(0.00435165 2.82483 0)
(0.0311311 2.91585 0)
(-0.00593048 2.7453 0)
(0.309453 3.55688 0)
(-0.132005 3.6386 0)
(0.140225 3.24936 -9.17956e-19)
(-0.0122834 2.98369 0)
(-0.258581 2.05184 0)
(-0.110861 1.52915 -1.94904e-19)
(-0.131842 1.50551 1.24195e-19)
(0.526332 0.151671 -2.47612e-19)
(0.447966 0.0351266 -2.39299e-19)
(0.509005 0.178498 -7.47529e-19)
(0.432591 0.0840466 -4.97671e-19)
(0.215095 0.917395 0)
(0.269519 1.34702 -5.71099e-19)
(0.382215 1.29366 9.41656e-19)
(0.987493 0.0084992 0)
(0.942034 0.00584551 0)
(1.0003 0.000570445 0)
(1.00287 0.00929825 0)
(1.00304 0.0084349 -1.61785e-18)
(0.991922 0.00971495 1.22166e-18)
(-0.0486845 0.838017 0)
(-0.0194803 0.671817 0)
(-0.119981 1.17369 0)
(-0.05039 0.940204 0)
(-0.0265799 0.88698 0)
(0.138764 0.211136 1.68068e-19)
(0.192497 0.189456 0)
(0.993519 -0.00840981 0)
(0.95437 -0.0065139 0)
(0.78396 0.0368713 0)
(0.73557 0.0457367 0)
(0.664507 -0.0332477 0)
(0.953067 -0.00441219 0)
(0.666304 0.0606139 0)
(0.502033 -0.0207481 9.92052e-19)
(-0.0363473 2.86455 4.30519e-19)
(0.0423569 2.90917 0)
(0.0549329 2.88451 0)
(-0.004491 2.69858 0)
(-0.0133189 2.98513 6.70438e-19)
(-0.0180781 2.89517 0)
(-0.0154174 2.98811 -2.10548e-18)
(-0.0133517 2.9252 7.2487e-19)
(-0.258224 1.46012 0)
(-0.25845 1.62238 0)
(-0.010986 1.38297 8.19476e-21)
(0.051782 1.31157 0)
(-0.0308981 1.1208 0)
(0.937498 -0.00777204 0)
(0.855486 -0.00958605 0)
(0.863944 0.00685215 0)
(0.948842 -0.00807823 0)
(0.883396 -0.00818055 0)
(0.517511 1.13528 -5.31753e-20)
(0.567425 1.1868 0)
(0.367754 0.884974 1.38332e-20)
(0.309879 0.744985 0)
(0.926259 1.07237 -2.36077e-19)
(1.03997 0.874726 4.80876e-19)
(0.376082 1.38708 0)
(0.537845 1.35573 0)
(0.544079 1.31536 0)
(0.105702 0.176894 -1.87879e-19)
(0.442504 0.237781 0)
(0.416287 0.127553 1.41662e-19)
(1.0106 0.928942 0)
(1.07772 0.77685 0)
(1.10338 0.719339 -4.10035e-19)
(1.13179 0.618182 0)
(1.17827 0.402781 5.6492e-20)
(0.957338 -0.00876212 0)
(0.962276 -0.0100755 0)
(0.901364 -0.00811645 0)
(0.984121 -0.00920976 0)
(0.97456 -0.00935113 0)
(0.936974 -0.00638226 0)
(1.00019 0.00231954 0)
(1.00091 0.00143143 0)
(0.999904 0.000844399 0)
(0.0340117 2.04376 2.32067e-19)
(0.121256 1.72375 0)
(0.015326 2.16254 2.74342e-19)
(0.0497391 1.8427 -1.83431e-19)
(0.129228 1.20158 -4.40268e-19)
(0.0432193 1.08184 0)
(0.115877 1.0737 0)
(0.0297358 0.894442 0)
(0.0154241 0.722718 0)
(-0.0103432 2.18216 1.53912e-21)
(0.0308446 1.98587 0)
(-0.0158158 2.15426 1.12708e-19)
(0.0156958 1.99795 -2.27927e-19)
(0.0108386 0.85968 0)
(0.0010661 0.836913 0)
(-0.0013745 0.692062 0)
(-0.0117182 0.749987 0)
(-0.0238849 0.622819 0)
(0.931693 0.0072907 0)
(0.839998 -0.0152742 0)
(0.92372 -0.000518018 0)
(0.838185 -0.0109495 0)
(0.813703 0.00405451 0)
(0.903719 0.0185962 0)
(0.882002 0.0216453 0)
(0.790427 0.00271357 0)
(0.00581007 3.06492 -6.73943e-21)
(0.0165204 3.05779 0)
(0.0146527 2.9691 0)
(0.00861957 2.87634 0)
(0.927324 3.97475 0)
(1.24256 3.30695 9.86814e-19)
(0.0704997 3.07592 0)
(-0.0279397 2.90644 0)
(-0.33969 1.65962 0)
(-0.339217 1.99264 0)
(-0.302181 1.8231 0)
(-0.105438 2.24833 -5.40219e-20)
(-0.256812 2.1736 0)
(-0.166796 2.12215 0)
(-0.0811445 1.89396 -1.10353e-20)
(-0.125292 1.91833 -9.45624e-20)
(-0.138968 1.72801 -1.2147e-19)
(-0.125825 1.73815 0)
(0.554342 0.124097 3.66762e-19)
(0.465131 0.0108116 -3.59359e-19)
(0.261274 1.55198 0)
(0.262789 0.692855 -2.40408e-19)
(0.177182 1.63864 -8.07636e-19)
(0.22598 1.16626 8.09693e-19)
(0.902496 0.00669787 0)
(0.96763 0.0109805 0)
(0.97472 0.0107216 0)
(0.923638 0.00657969 0)
(-0.00310806 0.744745 0)
(-0.0232218 0.77221 0)
(-0.0312353 0.644431 0)
(0.307691 0.250604 4.62691e-19)
(0.250303 0.227142 -5.50366e-19)
(0.263822 0.180871 0)
(1.08183 0.0867863 6.20642e-21)
(1.06477 0.040586 0)
(0.994719 0.0407177 0)
(0.889706 -0.00218981 0)
(0.577899 0.0952781 0)
(0.607352 0.0718024 -1.59303e-18)
(0.480315 -0.0016808 6.03731e-19)
(0.00925744 2.9817 5.08092e-19)
(-0.0322936 2.86659 4.75943e-20)
(0.0036635 3.05027 -1.44569e-20)
(0.020084 3.04338 5.17268e-19)
(-0.0149826 2.99656 2.3997e-20)
(-0.0129633 2.94943 -9.69115e-23)
(-0.0172791 3.01198 -4.51021e-19)
(0.0148506 3.0239 3.26632e-19)
(0.00736513 3.03686 -5.12646e-19)
(0.931457 -0.00189636 0)
(0.937805 -0.00369966 0)
(0.843281 -0.00889257 0)
(0.956907 0.0115477 0)
(0.943378 0.0126053 0)
(0.882092 0.00641897 0)
(0.91931 0.0153474 0)
(0.92725 0.0141052 0)
(0.839835 0.00530805 0)
(0.721889 1.41442 2.37401e-19)
(0.755597 1.52363 0)
(0.198998 0.349883 4.09168e-20)
(0.204314 0.642297 3.29919e-19)
(0.253536 0.716173 -1.91515e-19)
(0.27392 0.553818 3.7093e-19)
(0.315902 0.749276 1.02309e-18)
(0.12183 0.206488 2.63312e-19)
(0.484708 0.200491 5.31291e-19)
(0.464351 0.216036 1.35408e-19)
(0.423575 0.108358 2.65987e-19)
(1.16702 0.459923 2.13919e-19)
(1.17873 0.254282 2.19808e-19)
(0.012961 2.20568 7.4148e-20)
(0.04246 1.90251 0)
(0.954701 0.0291885 0)
(0.931093 0.0125906 0)
(0.853276 -0.014992 0)
(0.0112796 3.07452 0)
(0.0199335 2.94425 9.09405e-19)
(0.0164512 2.95644 0)
(0.00622011 2.85058 -9.02027e-19)
(0.00631269 3.09199 2.17511e-19)
(0.0070393 3.08224 0)
(0.788887 1.82664 -2.14643e-19)
(1.25037 2.50534 5.81056e-19)
(0.771071 1.96645 -1.41178e-18)
(0.0202889 2.98255 -3.99154e-19)
(0.0359595 3.00287 0)
(-0.0335778 2.87927 0)
(-0.0463637 2.1066 8.18223e-22)
(-0.0758378 2.03947 2.20334e-19)
(-0.013732 1.97066 1.93792e-21)
(0.274771 1.35907 7.84961e-19)
(0.215868 0.473435 -5.40091e-19)
(0.0649624 1.96898 5.52267e-19)
(0.138178 1.85847 -6.77853e-19)
(0.176613 1.45952 8.68367e-20)
(0.00587498 3.1183 -1.1679e-18)
(0.0121105 3.11907 1.27758e-18)
(-0.00908438 2.98062 5.96269e-19)
(-0.00391833 2.97741 -5.41283e-19)
(-0.0215714 2.88112 -6.07291e-19)
(0.0084702 3.09911 -1.60046e-18)
(0.0016276 3.1057 1.60976e-18)
(0.258679 0.661908 0)
(0.216421 0.6508 -6.72293e-19)
(0.103037 0.219174 3.00465e-19)
(0.335708 0.871373 7.8974e-19)
(0.177725 0.246901 -1.21299e-18)
(1.16933 0.17349 -1.7218e-20)
(1.17946 0.308288 0)
(1.15727 0.121108 7.62852e-20)
(-0.00876092 2.20265 1.02964e-21)
(0.000804794 2.21105 0)
(0.0314595 1.95665 0)
(0.336657 1.25884 -2.84314e-19)
(0.358912 1.08137 -6.08547e-19)
(0.18939 0.340861 1.06163e-18)
(1.00586 -0.0108789 0)
(1.00766 -0.00767742 2.97016e-19)
(-0.264803 1.44531 0)
(-0.266842 1.31346 0)
(1.0022 0.00348689 1.78417e-21)
(1.00372 0.00946121 6.08575e-19)
(-0.119579 2.28127 6.77785e-20)
(-0.108103 2.32585 0)
(0.0364764 3.1797 2.0392e-19)
(0.396783 3.49402 0)
(1.13027 0.651996 2.34015e-20)
(1.01301 0.0129597 -2.14664e-21)
(1.02118 -0.0105048 0)
(1.00172 0.000156477 8.37006e-23)
(0.102341 1.35441 0)
(0.145544 2.57661 0)
(0.0798613 1.23767 0)
(-0.000293655 2.62046 -1.19359e-19)
(-0.0272036 2.58435 -1.2552e-19)
(1.00534 0.0288504 2.74342e-21)
(1.06058 0.000775107 0)
(1.08675 0.0143968 0)
(-0.32845 1.99663 0)
(-0.233971 2.54357 0)
(-0.139945 1.07421 0)
(0.276564 1.46299 -3.51933e-19)
(1.01124 -0.00971764 0)
(1.00935 -0.0149729 0)
(1.00242 0.000735886 3.79014e-19)
(1.00548 -0.0048484 -4.45981e-19)
(1.00117 -0.00104591 0)
(-0.382921 1.80517 0)
(-0.330099 1.47771 0)
(-0.333154 1.67217 0)
(-0.152455 1.0522 0)
(-0.234476 1.16119 0)
(-0.146468 1.0444 0)
(1.03419 -0.00679686 0)
(1.02094 0.0156219 -9.72446e-22)
(0.790526 1.25534 4.3475e-19)
(1.00229 0.00034284 -3.77785e-19)
(1.00408 0.00523712 4.43955e-19)
(1.00116 0.00203794 0)
(1.01287 0.010218 3.72729e-19)
(1.00805 0.00827293 -4.5672e-19)
(1.00862 0.0146699 0)
(-0.221957 2.54452 0)
(-0.171137 2.46043 -3.04284e-19)
(-0.186595 2.44693 2.33812e-19)
(1.20396 0.261151 1.41933e-19)
(1.14137 0.084537 0)
(0.0461166 3.0778 -6.33828e-19)
(0.0660478 2.85319 -4.86059e-20)
(0.143281 3.19447 9.97743e-19)
(0.138101 3.2233 -6.17148e-20)
(0.136694 3.23621 0)
(0.0197425 3.13777 1.49294e-19)
(0.0772113 3.16096 6.20847e-19)
(0.0699803 3.1872 -2.85011e-19)
(0.0231302 3.1292 0)
(0.660798 0.305626 0)
(0.576417 0.369408 0)
(1.10254 0.680644 -1.19972e-19)
(1.09946 0.812141 2.15901e-19)
(1.15885 0.570137 0)
(1.1885 0.513133 0)
(1.01619 0.0132517 -6.92036e-19)
(1.01498 0.0142546 8.66685e-19)
(1.02507 -0.0100675 0)
(1.02308 -0.0122085 0)
(1.00649 0.00256218 0)
(1.01038 0.00365406 0)
(1.00438 0.00190327 0)
(1.00978 0.0060437 0)
(1.00794 0.00586417 0)
(1.0045 0.00467527 0)
(0.0930867 1.35039 0)
(0.0867553 1.31744 0)
(0.115291 1.3825 0)
(0.127946 1.40583 0)
(0.145089 2.59975 0)
(0.187118 2.66139 -2.74662e-19)
(0.104699 2.65715 0)
(0.0847466 2.66053 4.60102e-20)
(0.0394269 2.67823 8.42181e-20)
(0.10027 1.20776 0)
(0.0694042 1.09456 0)
(0.0595315 1.28352 0)
(0.0113552 1.24183 0)
(0.0118643 1.97374 1.47198e-19)
(-0.04096 2.60541 -1.72422e-19)
(-0.0152235 2.66214 -1.87078e-19)
(-0.0254736 2.66428 0)
(-0.0640593 2.61793 3.56716e-19)
(-0.0597187 2.60327 2.21924e-19)
(-0.0097559 1.98337 -1.06576e-19)
(-0.0424918 2.4531 2.40319e-19)
(-0.0056461 2.4472 2.21051e-19)
(1.01434 0.0346808 6.97642e-19)
(1.00879 0.018229 -8.59804e-19)
(1.00589 0.0418554 -7.04673e-19)
(0.98658 0.0230043 9.02328e-19)
(1.06143 0.00511698 0)
(1.04727 -0.00990145 0)
(1.08606 0.0231714 0)
(1.06919 0.00696592 0)
(1.06572 -0.00428077 0)
(1.12468 0.0742103 0)
(1.09842 0.0364567 0)
(1.09977 0.0276461 0)
(-0.198955 2.34696 1.78293e-20)
(-0.349417 2.21079 0)
(-0.266934 2.22737 0)
(-0.230716 2.60371 -1.68078e-19)
(-0.204149 2.55519 3.64359e-21)
(-0.365734 1.94855 -2.88581e-19)
(-0.350403 1.81971 2.83758e-19)
(-0.287033 1.42997 0)
(-0.332073 1.45496 0)
(-0.349401 1.49485 0)
(-0.0869115 1.05627 0)
(-0.0363442 0.933402 0)
(0.372461 1.47596 6.56209e-19)
(0.405682 1.48686 2.70146e-19)
(0.593713 2.44825 -1.80476e-19)
(0.405642 2.54124 5.06332e-19)
(0.353863 2.08422 -1.27657e-20)
(1.02083 -0.00835195 0)
(1.01541 -0.00989807 0)
(1.01482 -0.0156244 0)
(1.00756 -0.00137531 0)
(1.00499 -0.00102973 0)
(1.00774 -0.00487342 0)
(1.0092 -0.00387196 0)
(1.01412 -0.00456741 0)
(1.02164 0.0157674 6.68759e-19)
(1.0183 0.0157102 -8.59697e-19)
(1.02209 0.0176026 -6.71566e-19)
(1.01965 0.016332 8.41521e-19)
(0.758775 1.30514 0)
(0.692205 1.35957 4.92771e-19)
(0.868107 1.20044 2.72223e-19)
(0.911264 1.15791 -3.62271e-19)
(1.16049 2.61269 -2.8098e-19)
(0.824005 0.096043 3.91212e-19)
(1.14134 0.102581 0)
(1.18442 0.18672 -1.10809e-19)
(1.16936 0.157289 -4.56019e-21)
(1.00292 0.129973 0)
(0.13953 2.96326 2.62914e-19)
(0.116968 2.86916 -8.17836e-19)
(0.0285969 2.36905 5.68958e-19)
(0.0937371 0.0221594 -2.44875e-19)
(0.34171 3.42299 -3.68176e-19)
(0.19596 3.31524 0)
(0.238399 3.35753 4.79485e-19)
(0.248111 3.03619 -1.08657e-18)
(0.342357 3.1949 0)
(0.00694742 3.12069 3.22791e-20)
(0.0180179 3.12942 -3.9552e-19)
(0.0157232 3.12546 5.82147e-19)
(0.0360035 3.13967 0)
(0.0342359 3.15097 0)
(1.21944 2.61232 0)
(0.542928 0.841689 -3.3398e-19)
(1.03116 0.983626 -1.37103e-19)
(0.968683 1.05423 0)
(0.814565 0.957868 1.19695e-21)
(1.05409 0.869959 3.00382e-20)
(0.371209 0.416751 -6.48468e-19)
(0.702803 0.322497 -2.2248e-20)
(0.689578 0.253882 2.93794e-19)
(0.591902 0.397935 2.22129e-20)
(0.511519 0.375242 -9.00961e-19)
(0.67122 0.347302 0)
(0.695101 0.431854 4.89113e-19)
(0.701866 0.428955 0)
(0.62883 0.384975 0)
(0.609918 0.315474 0)
(0.781242 0.61505 2.26552e-19)
(1.20036 0.279319 -1.3279e-19)
(1.1957 0.414487 0)
(1.20971 0.363776 0)
(0.767159 0.20032 4.34878e-19)
(0.826444 0.540493 -2.55765e-19)
(0.73261 0.51714 4.32224e-19)
(0.924457 0.419162 -4.41202e-19)
(1.01998 0.0144333 4.61591e-19)
(1.01796 0.0141402 -4.67665e-19)
(1.01596 0.0156591 0)
(1.03559 -0.00644622 0)
(1.02938 -0.00889124 -4.29694e-19)
(1.02709 -0.0125979 4.25316e-19)
(1.02515 0.00929922 0)
(1.02372 0.012971 0)
(1.01141 0.00391783 0)
(1.01433 0.00881139 0)
(1.01507 0.00370822 0)
(1.01416 0.00269754 0)
(0.0707233 1.33639 0)
(0.0635334 1.29427 0)
(0.150932 1.33936 2.29708e-19)
(0.259081 1.46034 1.98121e-19)
(0.15002 1.43544 4.2058e-19)
(0.179863 1.44238 -6.85536e-19)
(0.168951 1.37248 0)
(0.122722 1.58937 1.68121e-19)
(0.11271 1.56106 0)
(0.350946 2.03895 1.85516e-20)
(0.351861 2.36991 3.48803e-19)
(0.1828 1.44097 -1.46698e-19)
(0.260232 1.36234 1.39577e-19)
(0.190726 1.3535 -1.11794e-19)
(0.267503 1.30189 1.89893e-19)
(0.232768 1.57415 0)
(0.256869 1.61614 -1.10641e-19)
(0.0416754 2.27184 5.84991e-20)
(0.0393307 2.66999 0)
(0.0630129 2.41015 -8.06584e-20)
(0.0508217 2.4289 0)
(0.0740433 2.67255 -5.20122e-20)
(0.0497197 2.69912 0)
(0.107801 1.45634 2.55202e-19)
(0.0304809 1.49524 0)
(0.0381747 1.39677 0)
(0.108532 1.39285 -2.82672e-19)
(-0.00460828 2.64739 -2.67261e-20)
(0.0223726 2.69703 -1.21276e-19)
(0.00745442 2.7162 -8.21017e-22)
(0.0933339 1.94442 -1.99153e-19)
(0.0525484 1.68389 -6.85412e-20)
(0.0553578 1.07107 0)
(0.036302 0.963763 0)
(0.02691 1.5748 -3.18635e-19)
(0.0353151 1.44152 -3.06923e-19)
(0.0490624 1.52047 3.91912e-19)
(0.0296308 1.59802 0)
(-0.246345 2.46429 7.8172e-19)
(-0.241169 2.6181 -3.07221e-19)
(-0.218807 2.58192 8.18009e-20)
(0.03233 1.97648 2.40863e-19)
(-0.0973893 2.5643 1.00028e-19)
(-0.0463127 2.495 -3.01731e-19)
(1.02064 0.0202079 -4.56595e-19)
(1.01767 0.02522 4.58678e-19)
(1.01478 0.0166159 0)
(1.01864 0.061563 6.47123e-19)
(0.996781 0.0532159 -7.44172e-19)
(0.959676 0.0374806 8.448e-19)
(1.01759 0.0925614 -8.53245e-20)
(1.04189 -0.00639332 0)
(1.04953 -0.00263184 3.98793e-19)
(1.03811 -0.0106523 -3.9924e-19)
(1.06686 0.033008 -2.28789e-20)
(1.06137 0.0164348 2.0015e-19)
(1.06167 0.0444246 0)
(1.057 0.0382264 -7.3032e-20)
(1.03387 0.0365061 0)
(1.02776 0.0338262 0)
(1.02758 0.0122777 0)
(1.02437 0.0152211 0)
(1.0397 0.0270697 1.5128e-19)
(1.03784 0.0224794 -3.39228e-19)
(1.05157 0.026403 -1.57645e-19)
(1.04891 0.0262352 -1.76245e-19)
(1.07245 0.0515504 3.32649e-19)
(1.08631 0.0427889 0)
(1.09327 0.0901523 0)
(-0.270016 2.46499 3.27371e-19)
(-0.333323 2.23763 2.59827e-20)
(-0.318984 2.28875 0)
(-0.254131 2.48586 -3.21996e-19)
(-0.230733 2.39285 -4.36778e-20)
(-0.210667 2.46033 6.3599e-20)
(-0.102383 2.62283 -1.80768e-19)
(-0.164999 2.6187 1.9159e-20)
(-0.132279 2.57587 -7.3913e-20)
(-0.169265 2.62388 1.1936e-19)
(-0.115711 2.58498 -1.45611e-19)
(-0.295005 1.70269 -1.92396e-20)
(-0.295711 1.99405 -4.74632e-19)
(0.362809 1.41076 -3.19004e-19)
(0.360211 1.3521 -2.67487e-19)
(0.640189 1.40601 -4.76692e-19)
(0.507397 1.47224 -2.61716e-19)
(0.557601 1.44714 0)
(0.589599 2.42272 1.50166e-19)
(0.656698 2.41261 2.59584e-19)
(0.411115 2.51752 8.04054e-20)
(0.404919 2.55706 -3.0103e-19)
(0.515526 2.5111 3.6597e-19)
(0.547758 2.4617 0)
(0.488235 2.51155 -4.16198e-19)
(0.246836 2.58968 7.6557e-19)
(0.352839 2.56605 -8.09573e-20)
(0.284587 2.64907 -1.10955e-18)
(0.93381 2.38521 3.94677e-19)
(0.829683 2.38658 0)
(1.01106 0.000151817 1.52125e-20)
(1.01522 -0.00551615 -1.23226e-20)
(1.01742 -0.00363999 -2.24167e-19)
(1.01479 -0.00112061 2.25602e-19)
(1.01228 0.000740599 0)
(0.626272 1.27281 0)
(0.645523 1.16366 0)
(0.747407 1.0683 0)
(0.638076 1.13325 0)
(1.18784 2.62875 5.72625e-20)
(1.07831 2.37226 0)
(0.845586 2.2036 -4.87233e-24)
(0.82751 2.46849 0)
(0.921987 2.55548 -1.12941e-19)
(0.958884 2.5096 7.52678e-20)
(0.835947 0.145645 0)
(0.804661 0.136184 1.10021e-19)
(0.925628 0.121707 5.97274e-19)
(0.853515 0.119576 -2.32764e-19)
(0.835864 0.0608115 -7.01971e-19)
(1.05791 0.221777 -4.61238e-19)
(0.976845 0.274623 -1.57077e-20)
(0.909219 0.271139 5.51253e-19)
(0.99231 0.203442 4.33903e-19)
(0.944946 0.161589 -7.72943e-19)
(0.916155 0.17027 9.83464e-20)
(0.94238 0.232972 -2.01396e-19)
(0.920715 0.192862 0)
(0.988152 0.163295 3.76252e-19)
(1.03511 0.170045 0)
(1.03019 0.196365 0)
(1.09014 0.1117 1.4907e-19)
(1.06178 0.161718 -1.34094e-20)
(1.05218 0.225617 -8.21676e-20)
(1.08525 0.195404 0)
(1.02486 0.0410684 3.50353e-19)
(1.04482 0.0496073 4.26101e-19)
(1.03539 0.0375839 -3.48023e-19)
(1.04715 0.0552793 -2.86162e-19)
(1.02173 0.064196 -4.55329e-19)
(0.988433 0.133244 0)
(1.00362 0.0873883 0)
(0.973217 0.0517748 -3.03353e-19)
(0.926059 0.0671743 1.22762e-19)
(1.04155 0.0897196 3.98648e-19)
(1.0656 0.111926 -4.40483e-19)
(1.06928 0.141184 3.98049e-19)
(1.03225 0.128918 0)
(1.07286 0.0975458 0)
(1.05974 0.0777422 -1.81145e-19)
(1.05126 0.0850414 -3.23165e-19)
(0.588469 1.09059 -1.86641e-20)
(0.620097 1.41967 1.2015e-19)
(1.16046 2.74453 -5.89556e-21)
(1.22648 3.08479 -4.70076e-20)
(1.25172 2.72709 3.39535e-19)
(1.2824 2.71055 -2.41263e-19)
(1.2108 2.35155 -9.49801e-21)
(1.21362 2.98911 1.00734e-19)
(1.23271 2.95452 -6.85849e-20)
(1.21766 3.23856 -2.27846e-19)
(1.37878 2.97101 3.15192e-19)
(1.36992 2.88926 0)
(0.544486 0.848739 -2.52652e-20)
(0.142637 1.26468 4.36077e-19)
(0.525551 0.472871 4.24728e-19)
(0.361317 0.228223 4.62114e-19)
(0.530326 0.40546 5.06636e-19)
(0.53904 0.491338 -8.089e-19)
(0.541553 0.495955 6.62457e-19)
(0.495795 0.422598 -2.56541e-19)
(0.426573 0.363304 5.88337e-19)
(0.768799 0.256535 -2.45929e-19)
(0.728623 0.290763 0)
(0.725636 0.228925 1.00325e-20)
(0.712412 0.516581 2.53926e-19)
(0.682527 0.490998 -9.32103e-19)
(0.603232 0.488898 1.64177e-20)
(0.620858 0.47528 0)
(0.670651 0.736385 2.3084e-19)
(0.811907 0.767765 1.69078e-19)
(0.741793 0.850029 -2.03214e-19)
(0.854869 0.800404 -6.35842e-20)
(0.886372 0.838409 -3.12771e-21)
(0.894788 0.840579 3.2019e-21)
(0.820734 0.642569 -3.80574e-19)
(0.898917 0.693681 5.90591e-20)
(0.956486 0.705621 0)
(0.945216 0.681234 -7.68711e-20)
(1.00273 0.316017 1.13731e-19)
(1.11297 0.288143 9.95014e-20)
(1.04222 0.258721 1.88482e-19)
(0.982164 0.349053 -2.41259e-19)
(1.02598 0.415581 0)
(1.08088 0.403812 0)
(0.897514 0.350644 4.88859e-21)
(0.837341 0.285765 0)
(0.857132 0.274404 2.71655e-19)
(0.893262 0.277573 -6.37354e-21)
(0.915818 0.422254 1.21931e-18)
(0.872785 0.484116 3.12467e-19)
(0.878048 0.44907 -3.62079e-19)
(0.809092 0.436685 3.88491e-19)
(0.791271 0.432935 2.48196e-19)
(0.761577 0.417971 -2.43766e-19)
(1.02749 -0.000591205 3.69256e-19)
(1.0202 -0.000158572 0)
(1.0186 0.00070555 2.41836e-19)
(1.02106 -0.00214563 -5.4591e-19)
(1.02235 0.00422396 2.6564e-19)
(1.02043 0.0107917 -5.56575e-19)
(1.02142 0.010199 0)
(1.02091 0.0104029 -1.16711e-19)
(1.01612 0.00739363 2.92758e-19)
(1.01682 0.0101615 -1.4622e-19)
(1.01747 0.00951202 1.07628e-19)
(0.0581833 1.31352 0)
(0.0473508 1.36794 0)
(0.0493384 1.32169 0)
(0.0326603 1.2736 0)
(0.0718645 1.37168 -5.00084e-19)
(0.0873689 1.34073 1.5843e-19)
(0.103563 1.50366 1.06869e-19)
(0.0944243 1.33714 -1.18058e-19)
(0.0304932 1.45665 3.03769e-19)
(0.0303815 1.44721 -2.34688e-19)
(0.0587745 1.3565 -5.38217e-21)
(0.0523758 1.35967 3.09879e-19)
(0.0491353 1.34083 4.52297e-20)
(0.0308039 1.37954 4.06357e-20)
(0.102063 2.38631 9.21678e-20)
(0.0951299 2.42944 0)
(0.160816 2.06671 6.28054e-21)
(0.101674 1.7066 -6.23853e-20)
(0.226633 2.06077 -5.27439e-21)
(0.210839 2.4565 0)
(0.268853 2.40982 -2.57905e-19)
(0.302459 2.40993 1.84074e-19)
(0.228997 2.02122 -1.28553e-20)
(0.147141 2.18671 4.31135e-20)
(0.143758 2.3083 0)
(0.0251815 1.87556 3.25991e-19)
(-0.00469713 2.40591 2.88583e-19)
(-0.0382682 2.15262 0)
(-0.000972509 2.46431 -1.36787e-20)
(0.0274883 2.31574 -1.44596e-19)
(0.131162 1.43985 -5.59679e-20)
(0.149322 1.35062 9.6661e-19)
(0.103291 1.41164 -3.22286e-19)
(0.129084 1.4719 -2.6624e-19)
(0.124972 1.49204 0)
(0.100765 1.37689 0)
(-0.064515 1.01915 -4.10117e-19)
(0.0130602 1.24117 1.30955e-19)
(0.0916465 1.30733 0)
(0.00068817 0.98951 -2.89682e-19)
(-0.0173097 0.901629 5.89939e-19)
(1.04016 0.0108111 0)
(1.04608 0.00690324 -3.73889e-20)
(1.03867 0.0201729 -2.71608e-19)
(1.04739 0.017533 0)
(1.05211 0.017185 0)
(1.03537 0.0104471 -6.37973e-21)
(1.03127 0.0106036 4.40961e-19)
(1.0311 0.0152275 5.35473e-19)
(1.02616 0.0189926 0)
(1.02365 0.0198299 0)
(1.03475 0.022667 2.72115e-19)
(1.02569 0.0248071 0)
(1.02557 0.0237364 0)
(-0.0927595 2.28316 0)
(-0.225833 2.08279 -2.39471e-20)
(-0.196227 2.19292 -1.70987e-19)
(0.0202615 1.25715 0)
(-0.122344 1.84438 -2.99626e-19)
(-0.127237 1.54542 1.80124e-19)
(-0.0731616 1.23215 0)
(0.394167 1.69363 0)
(0.360488 1.27845 4.33829e-19)
(0.303725 1.33599 0)
(0.415471 1.27678 -5.87315e-19)
(0.459629 1.44498 0)
(0.44051 1.38727 2.80388e-19)
(1.03142 2.69962 -7.92441e-21)
(0.957116 2.4177 -4.97286e-19)
(0.902557 2.1842 5.67718e-19)
(0.84212 2.37939 1.58434e-19)
(0.844694 2.51383 0)
(0.914337 2.50768 0)
(0.917183 2.37901 0)
(0.89488 2.3621 -6.0855e-19)
(0.692909 2.48761 -1.28832e-19)
(0.801397 2.47923 -3.88373e-20)
(0.812921 2.4503 2.97251e-20)
(0.690619 2.3906 0)
(0.794527 2.38917 0)
(0.753806 2.39967 -2.70958e-19)
(0.7696 2.50353 0)
(0.610326 1.08441 0)
(0.492296 0.934961 -1.68644e-19)
(0.558093 0.964915 -1.14704e-20)
(0.529631 1.06755 0)
(0.530275 1.01811 2.54731e-19)
(0.765139 0.87076 -3.32003e-20)
(0.773648 1.00711 0)
(0.747915 0.962353 1.82795e-20)
(0.641569 1.02574 0)
(0.64377 0.939224 0)
(1.16625 2.76668 -3.64472e-20)
(1.14484 2.83012 5.24242e-20)
(0.936987 2.35407 -1.59892e-19)
(0.903711 2.33269 -2.35365e-21)
(1.13051 2.74151 0)
(1.08254 2.71253 3.01688e-21)
(1.08982 2.49412 -1.5627e-19)
(0.985122 2.23715 -3.06843e-20)
(0.502872 1.37186 0)
(0.516174 1.08282 1.64799e-20)
(0.550048 1.15153 0)
(0.860331 0.214757 0)
(0.812102 0.170185 0)
(0.770761 0.149939 0)
(0.853359 0.222481 -4.27438e-19)
(0.788092 0.214526 2.58721e-19)
(0.935353 0.0546334 -2.52531e-19)
(0.950845 0.101487 0)
(0.925694 0.106843 1.11047e-19)
(0.877146 0.0845425 4.49579e-19)
(0.860193 0.0463143 -2.78665e-19)
(1.16476 3.36399 -8.96549e-19)
(1.21253 3.28316 0)
(1.16303 3.39198 -1.78982e-18)
(0.64969 3.5526 1.53148e-18)
(0.875239 3.11946 2.75688e-19)
(0.519268 0.86042 3.55212e-19)
(0.440493 0.857893 0)
(0.342366 0.50578 -1.05426e-19)
(0.444097 0.688793 5.41541e-19)
(0.528096 0.477232 -1.41984e-19)
(0.504439 0.525628 1.63832e-19)
(0.649079 0.54354 3.48463e-19)
(0.678979 0.56425 0)
(0.630681 0.624427 0)
(0.587843 0.564196 0)
(0.951775 0.591923 -3.85899e-21)
(0.875228 0.533261 -3.03284e-19)
(0.899369 0.565701 1.92338e-19)
(0.934367 0.501695 -2.2934e-19)
(1.03761 0.474612 0)
(1.04591 0.563629 -3.73678e-20)
(0.834911 0.387833 -5.575e-19)
(0.839381 0.372976 -6.62744e-19)
(0.789356 0.382484 4.35957e-19)
(0.782118 0.354199 -4.70937e-19)
(0.836338 0.312689 -3.55659e-19)
(0.791902 0.309349 4.37443e-19)
(1.02647 0.00545175 -2.75914e-19)
(1.02625 0.00558817 5.57477e-19)
(1.02939 -0.000633271 3.5479e-19)
(1.03305 6.04012e-05 -4.26713e-19)
(1.03316 0.00800466 0)
(1.02982 0.00853069 -6.90028e-19)
(0.0444652 1.64834 -3.30614e-20)
(0.0335457 1.5732 0)
(0.089198 1.6992 -3.19401e-19)
(0.0826046 1.68008 2.9717e-19)
(0.0956609 1.53125 -2.0051e-19)
(0.0836047 1.49881 0)
(0.144811 1.90136 0)
(0.101478 1.58413 1.26913e-19)
(0.0851117 1.43545 -1.1361e-19)
(0.0107362 1.71582 2.40061e-20)
(-0.0384963 2.1765 2.17642e-19)
(-0.00943193 2.15447 -7.67273e-20)
(0.495936 1.38017 2.0355e-19)
(0.489224 1.38567 -2.16783e-19)
(0.437077 1.27554 2.81875e-19)
(0.432722 1.29365 -1.53442e-20)
(0.621177 1.28779 0)
(0.536563 1.37431 3.97077e-19)
(0.55243 1.38356 -3.86518e-19)
(0.44329 1.26402 -2.71744e-19)
(0.497702 1.21893 0)
(0.553237 1.18888 0)
(0.659531 2.44669 1.89302e-19)
(0.669328 2.47612 7.54097e-19)
(0.717673 2.49201 -5.18851e-19)
(0.62195 2.47414 -1.4634e-19)
(0.563042 2.56581 1.54489e-19)
(0.512571 2.53777 -4.33064e-19)
(0.971627 2.38193 -3.11675e-19)
(1.0116 2.39894 0)
(0.916667 2.16452 -3.82302e-19)
(1.05136 2.69304 0)
(1.05352 2.68014 0)
(0.616527 2.27877 1.12726e-19)
(1.04561 3.16605 3.6365e-19)
(0.916529 3.036 -2.93822e-19)
(0.2851 0.927044 0)
(0.324784 0.788402 -2.097e-19)
(0.484513 0.743959 -1.57432e-19)
(0.391379 2.02687 0)
(0.468929 2.78761 -1.91938e-19)
(0.425483 2.55199 0)
(0.679976 0.687665 -4.84315e-19)
(0.756233 0.678266 6.42991e-19)
(0.774408 0.624362 -6.32759e-19)
(0.657906 0.653971 -6.69866e-20)
(0.711026 0.601465 -2.76331e-19)
(1.00833 2.77024 -2.76509e-19)
(1.04408 2.82541 1.38489e-19)
(0.642709 2.15686 2.81218e-19)
(0.602695 1.72374 -2.20783e-19)
(0.705285 1.9148 -5.99933e-20)
(0.994371 2.45375 -8.33539e-20)
(0.997893 2.44635 -1.17819e-20)
(0.666658 1.85374 5.98622e-21)
(0.460648 1.34551 -5.18867e-21)
)
;

boundaryField
{
    wall-4
    {
        type            noSlip;
    }
    velocity-inlet-5
    {
        type            fixedValue;
        value           uniform (1 0 0);
    }
    velocity-inlet-6
    {
        type            fixedValue;
        value           uniform (0 3 0);
    }
    pressure-outlet-7
    {
        type            zeroGradient;
    }
    wall-8
    {
        type            noSlip;
    }
    frontAndBackPlanes
    {
        type            empty;
    }
}


// ************************************************************************* //
