/*--------------------------------*- C++ -*----------------------------------*\
| =========                 |                                                 |
| \\      /  F ield         | OpenFOAM: The Open Source CFD Toolbox           |
|  \\    /   O peration     | Version:  4.0                                   |
|   \\  /    A nd           | Web:      www.OpenFOAM.org                      |
|    \\/     M anipulation  |                                                 |
\*---------------------------------------------------------------------------*/
FoamFile
{
    version     2.0;
    format      ascii;
    class       volScalarField;
    location    "44";
    object      p;
}
// * * * * * * * * * * * * * * * * * * * * * * * * * * * * * * * * * * * * * //

dimensions      [0 2 -2 0 0 0 0];

internalField   nonuniform List<scalar> 
918
(
0.574777
1.22251
0.00171261
0.574025
-0.011786
1.19014
-0.481002
0.725234
0.554651
-0.0748992
-0.00595286
0.551061
1.05087
0.816015
-1.0991
6.45163e-05
0.675888
-0.366415
0.554038
-0.0187918
0.760704
0.561097
0.564121
0.554514
0.620901
0.797622
0.931318
0.0283672
0.00171332
-0.00195227
-0.0105017
-0.0427333
-0.031029
1.07353
1.12411
1.14667
0.523131
0.361705
-0.331672
-0.41058
-0.403059
-0.524971
0.719877
0.718351
-0.169855
0.728529
0.734861
0.542207
0.55399
0.554936
0.556013
0.554969
0.556392
0.43328
-0.0786709
-0.112627
-0.0549268
-0.0449656
0.081764
-0.00769983
-0.00843931
-0.00434859
-0.00628539
0.472842
0.546417
0.543643
0.556176
0.566114
1.16125
1.13231
1.15789
1.0748
1.08968
1.02859
1.00049
0.837498
0.858595
0.800538
0.788466
-1.5175
-2.4751
-0.514763
-0.262951
-0.012861
0.00582417
0.0190682
0.668673
0.667768
0.677108
0.688778
1.11223
-0.336153
-0.488295
0.553849
0.55283
0.560938
0.561297
0.558462
0.556543
-0.016543
-0.0146914
-0.0193389
-0.0194689
-0.0224874
0.749008
0.747468
0.556192
0.552785
0.570885
0.590451
0.584326
0.301895
0.623243
0.634757
0.618509
0.787038
0.781598
0.790261
0.905906
0.868476
0.968784
0.992245
0.0161479
0.00291658
-0.00592364
-0.0158711
-0.0133123
0.51905
0.510971
0.538141
0.526543
0.528983
0.278291
0.145102
0.455244
0.483351
-0.246812
-0.317906
-0.400498
-0.431775
-0.531177
0.644869
0.709117
0.707563
-0.178678
-0.114396
-0.242294
-0.031973
-0.0979149
0.532514
0.539517
0.533867
0.549553
0.544273
0.545869
0.558306
0.555374
0.556895
0.493716
0.596403
0.364457
0.324936
-0.221955
-0.125708
-0.219291
-0.0314625
-0.0253346
0.0980764
0.124896
0.0697109
0.0633708
-0.0202552
-0.010876
-0.0149647
-0.00587939
-0.00922122
0.467315
0.457162
0.486418
0.493643
0.536689
0.537689
0.540931
0.539437
0.950885
0.973428
0.981738
0.95543
-3.48897
-6.5424
0.0607321
0.201719
-0.00342085
-0.0096886
0.00457602
-0.00171061
0.00051299
-0.000299444
0.0198764
0.0188966
0.0246095
0.0304795
0.657889
0.658112
1.01774
1.01255
0.980234
0.923362
0.542084
0.544192
0.549675
0.545184
-0.0101075
-0.013597
-0.0132686
0.73664
0.743546
0.741468
0.264757
0.178501
0.3526
0.381374
0.649902
0.639153
0.647904
0.680188
0.714548
0.998687
1.01646
1.01678
1.02472
1.06992
1.0829
1.04851
0.499205
0.50876
0.504302
0.541271
0.539004
0.539883
0.535676
0.536947
0.534395
-0.0245097
-0.384405
0.543786
0.558662
0.540251
0.545392
0.716249
0.783635
0.689489
0.699098
0.697668
0.0354886
-0.0258858
0.2801
0.246879
0.407767
0.443779
0.420759
0.921872
0.883796
0.933679
0.907008
0.867317
0.893388
-0.423289
-1.66039
-0.922216
0.56077
0.369696
0.458328
0.0430213
0.0218412
0.0279341
1.00035
1.09043
0.644075
0.831808
0.879963
0.753789
0.785477
0.841489
0.764788
0.800125
0.83533
0.81787
0.602363
0.557419
0.56108
0.846358
0.900376
0.15669
0.104464
0.0479439
0.142777
0.196835
0.171516
1.03932
0.954641
1.02725
0.552396
0.553009
0.00828408
0.00730931
0.557213
0.55741
-0.00612967
0.00308259
0.445168
-0.793477
0.130597
0.54536
0.53563
0.552598
-0.0640166
0.395814
-0.0066149
0.082585
0.023352
0.548266
0.483693
0.445237
0.00685759
-0.00719267
-0.0125289
-0.204569
0.549911
0.548064
0.552114
0.553159
0.553797
-0.0102551
0.000956276
-0.00286776
-0.0152642
-0.0149084
-0.0179062
0.517224
0.53481
-0.146547
0.552238
0.554447
0.554257
0.547135
0.552983
0.550914
0.00626353
-0.00539248
-0.00848129
0.252234
0.377839
0.687105
0.786525
0.658626
0.4245
0.1715
0.591656
0.654966
0.562552
0.714009
0.702206
0.722304
0.203668
0.0421743
0.204955
0.144739
0.543552
0.541968
0.534033
0.53102
0.547568
0.545756
0.550145
0.547108
0.550007
0.551449
-0.0164776
-0.0439448
-0.0560326
-0.131379
0.35171
0.618832
0.287061
0.328081
0.170446
-0.0019093
-0.00061959
-0.00482758
-0.0111795
0.0406927
0.00720711
0.0796712
0.077921
0.0444112
0.0167591
0.0298795
0.0119358
0.0167669
0.541601
0.540053
0.54633
0.554929
0.493149
0.49685
0.462499
0.482873
0.467928
0.410297
0.444685
0.42
0.00406411
0.0119001
0.00184623
-0.00249905
0.00309453
-0.00086756
-0.00666189
-0.00753017
0.000515905
-0.00711949
-0.0091953
-0.0162898
-0.160561
-0.271032
1.01475
0.946186
0.141364
0.538894
0.54548
0.542095
0.54711
0.550167
0.55102
0.548782
0.545352
0.535376
0.53712
0.533664
0.534357
-0.0766354
-0.221886
-0.0541742
-0.118622
0.152691
0.639385
0.389055
0.316907
0.317525
0.545781
0.964745
0.725986
0.710452
0.745935
-0.334819
0.0366604
-0.27508
0.316479
0.141507
0.688002
0.738778
0.762037
0.707573
0.660505
-0.225468
0.564604
-0.039563
0.00764746
0.212823
0.0990525
0.726367
0.686176
0.691322
0.710976
0.730872
0.689729
0.673478
0.670306
0.706501
0.711052
0.517337
0.285464
0.230179
0.197577
0.670169
0.555006
0.607376
0.519787
0.538475
0.541227
0.53977
0.521992
0.529467
0.525025
0.531133
0.534376
0.543538
0.544104
0.539124
0.54138
-0.0159562
-0.0211441
0.00850678
-0.113347
-0.102463
-0.184522
-0.0275548
0.0933545
0.0616636
0.258049
0.338772
0.0679916
-0.0281498
-0.00117945
0.0216607
0.193751
0.251264
0.108843
0.18909
0.186929
0.16633
0.282149
0.278415
0.00982872
0.00449028
0.00493173
0.00381734
0.0515446
0.121877
0.138781
0.0275938
0.0236448
-0.00114038
-0.00348999
0.009378
0.00636891
0.0096339
0.0458082
-0.0607933
-0.00567543
0.0151122
0.031635
0.0247548
0.0128497
0.534421
0.536515
0.536284
0.54425
0.561751
0.577829
0.534618
0.515534
0.506167
0.508974
0.482502
0.493065
0.488386
0.501398
0.52226
0.531394
0.529388
0.532091
0.514996
0.516669
0.503673
0.506985
0.483752
0.464678
0.452615
-0.00918522
0.0195319
0.0306489
-0.0189902
0.00856891
-0.00496166
0.0142796
0.0353786
0.0191324
0.0095495
0.000314269
-0.00393806
0.00404173
-0.0575139
0.0310543
-0.162916
-0.199655
-0.274881
0.916735
1.02294
0.838782
0.605833
0.619146
0.866018
0.948549
0.576738
0.749433
0.778206
0.618125
0.861049
0.543961
0.543519
0.541058
0.540581
0.541904
0.014266
0.121706
0.119994
0.185733
0.29822
0.420369
0.327539
0.200498
0.331665
0.321793
0.63212
0.648203
0.603895
0.625808
0.628404
0.449884
0.525254
0.579117
0.536977
0.583483
0.602271
0.563214
0.591098
0.544538
0.497844
0.497487
0.446638
0.459859
0.438791
0.42229
0.533912
0.510611
0.521222
0.511482
0.532481
0.55513
0.549981
0.58459
0.595624
0.516553
0.473748
0.481054
0.513582
0.474226
0.489164
0.503972
0.247094
0.176525
0.215482
-0.0749441
0.00891233
-0.0670163
-0.0986449
0.0191698
0.31845
-0.421313
-0.48224
-1.03715
0.509289
1.03512
0.680215
0.623944
0.728262
0.706457
0.709065
0.737198
0.738394
0.661291
0.677319
0.684486
0.639618
0.661632
0.691457
0.686055
0.549305
0.401865
0.39471
0.354843
0.229726
0.269371
0.47162
0.38622
0.311418
0.32591
0.486101
0.378935
0.444713
0.472343
0.392486
0.365517
0.561477
0.63198
0.620584
0.593724
0.51538
0.528097
0.556493
0.590505
0.615423
0.651985
0.530754
0.536555
0.537829
0.5353
0.532472
0.535393
0.535586
0.538195
0.538947
0.542052
0.541012
-0.00793609
0.00353063
-0.00861505
-0.0174712
0.0107947
0.00806985
0.0579626
0.042099
0.0228662
0.0293
0.00416317
0.00432066
0.00644657
0.0138492
0.13545
0.135748
0.116642
0.0848656
0.262619
0.400396
0.46399
0.343122
0.252515
0.278247
0.290986
0.0166316
0.0434302
0.0337233
0.0695227
0.0669966
-0.000442978
-0.00366138
-0.00244486
0.00274746
0.015741
-0.00520916
-0.0116978
-0.000877279
-0.00543499
-0.00651848
-0.0121755
0.518089
0.511676
0.512037
0.506666
0.505743
0.518726
0.523083
0.525491
0.530844
0.532715
0.523461
0.528654
0.532202
0.0139571
-0.0131635
-0.0232637
0.00204149
-0.00670879
-0.00281298
-0.00054878
0.141409
0.0733996
0.0704679
0.0283301
-0.103245
-0.0459293
0.511967
0.512603
0.516881
0.737539
0.590757
0.51597
0.61829
0.71724
0.289334
0.482467
0.318204
0.902966
0.792986
0.938914
0.5469
0.254136
0.416328
0.473389
0.263424
0.341206
0.339268
0.239027
0.267872
0.292898
0.397201
0.287463
0.27096
0.0213663
0.215828
0.332281
0.318707
0.444619
0.511979
0.268978
0.197252
0.16524
0.624428
0.642427
0.661774
0.632767
0.656564
0.594181
0.582111
0.600917
0.609891
0.605406
-0.762811
-0.472614
-1.38508
-0.677189
-0.23583
0.541139
0.50761
0.783652
0.666782
0.720612
0.706407
0.674772
0.63964
0.654414
0.684234
0.382631
0.488916
0.465811
0.468583
0.360652
0.304411
0.601667
0.593722
0.63292
0.655729
0.623268
0.657105
0.52842
0.528112
0.527735
0.52424
0.522606
0.524707
0.0924062
0.0590354
0.104203
0.0835924
0.0592459
0.0430246
0.0261605
0.0160212
0.00275031
0.000150799
0.0181223
0.0241836
0.175292
0.11424
0.044981
0.0716935
0.0115894
-0.0577037
-0.0764595
0.0273371
0.120261
0.121503
0.427045
0.666246
0.485841
0.656126
0.522329
0.553495
0.507435
0.50336
0.529801
0.414264
0.488091
0.30705
-0.230444
-0.109733
0.767361
0.828197
0.603376
0.47737
0.186512
0.311825
0.5751
0.499218
0.541217
0.613742
0.603418
0.0311086
0.0576177
0.397632
0.599823
0.260283
0.193047
0.209742
0.373566
0.326855
)
;

boundaryField
{
    wall-4
    {
        type            zeroGradient;
    }
    velocity-inlet-5
    {
        type            zeroGradient;
    }
    velocity-inlet-6
    {
        type            zeroGradient;
    }
    pressure-outlet-7
    {
        type            fixedValue;
        value           uniform 0;
    }
    wall-8
    {
        type            zeroGradient;
    }
    frontAndBackPlanes
    {
        type            empty;
    }
}


// ************************************************************************* //
