/*--------------------------------*- C++ -*----------------------------------*\
| =========                 |                                                 |
| \\      /  F ield         | OpenFOAM: The Open Source CFD Toolbox           |
|  \\    /   O peration     | Version:  4.0                                   |
|   \\  /    A nd           | Web:      www.OpenFOAM.org                      |
|    \\/     M anipulation  |                                                 |
\*---------------------------------------------------------------------------*/
FoamFile
{
    version     2.0;
    format      ascii;
    class       surfaceScalarField;
    location    "44";
    object      phi;
}
// * * * * * * * * * * * * * * * * * * * * * * * * * * * * * * * * * * * * * //

dimensions      [0 3 -1 0 0 0 0];

internalField   nonuniform List<scalar> 
1300
(
3.75095
5.62643
-3.14081
3.75095
-7.68966
5.62643
-4.39795
4.39795
-0.769385
0.769385
1.87646
1.87449
-2.96822
2.96822
-2.4574
2.4574
-2.54468
2.54468
-5.24642
5.24642
-5.06882
5.06882
4.65852
-4.65852
-6.23522
6.23522
-1.10824
1.10824
-3.86353
3.86353
3.16875
-3.16875
-2.28398
2.28398
-0.183824
0.183824
-0.553134
4.30409
3.19782
3.19782
-2.01747
2.01747
-4.86535
4.86535
6.21748
-6.21748
5.13992
-5.13992
-1.9991
-2.33075
1.8206
-11.5928
-5.86906
-5.86906
-8.44021
8.44021
-2.81378
2.81265
2.94494
-2.94494
-1.86652
1.86652
-4.31082
-0.0871339
-4.31082
4.40769
-0.00973897
4.40769
-0.85283
0.083445
-0.85283
3.9231
-3.9231
0.653146
0.116239
0.653146
3.06517
-3.06517
-1.87717
3.75363
1.87378
-1.87178
6.17587
-1.87917
3.75366
-5.96684
5.96684
-3.17718
0.208958
-3.17718
2.78555
0.182666
2.78555
-6.79999
6.79999
-2.50965
0.0522512
-2.50965
2.39692
0.0604753
2.39693
2.8706
-2.8706
-2.64991
0.105233
-2.64991
2.43045
0.11423
2.43045
0.35367
5.27276
-5.9801
8.79275
-5.27276
0.0263425
5.20822
0.0381976
5.20822
-5.10581
0.0369888
-5.10581
5.01252
0.056296
5.01252
4.73398
-0.0754634
4.73398
-4.7844
0.125883
-4.7844
-3.40778
-4.07312
-6.38975
0.154525
-6.38975
-1.13378
0.0255424
-1.13378
1.06058
0.0476627
1.06058
-3.64371
3.64371
-4.17706
0.313534
-4.17706
3.12259
0.0461571
3.12259
1.86902
1.88193
5.61998
-5.61998
2.45123
-2.27573
-0.00825851
-2.27573
-2.28428
-2.85563
2.28428
-0.000301314
-0.419484
0.23566
-0.419484
3.16012
0.0376991
3.16012
2.2744
0.156045
-2.2744
0.256933
3.24446
-3.24446
1.34833
0.669136
1.34833
-5.56743
5.56743
4.9546
0.0579186
-4.9546
0.0892518
6.15656
0.0609263
6.15656
-6.19989
-0.0175897
-6.19989
2.67775
-5.0085
-2.53732
6.0488
0.18642
-6.0488
0.179739
2.91559
0.0293473
2.91559
-2.91874
2.91874
-2.98414
0.0391995
-2.98414
-2.24851
0.381991
-2.24851
1.58202
0.284504
1.58202
-4.18478
-0.126034
-4.18478
-4.32463
0.147567
4.32463
0.0830589
1.1817
-1.1817
-0.958394
0.105564
-0.958394
-4.04658
-0.138202
4.04658
-0.12348
-3.80057
-0.122535
-3.80057
-3.02411
0.0399708
3.02411
0.0410612
3.11321
0.0469153
-3.11321
0.0480348
-1.87089
3.75282
-1.88006
3.75384
-5.59196
-0.374883
-5.59196
6.27791
-0.311071
6.27791
3.53641
0.327116
-3.53641
0.359235
2.65951
0.126042
2.65951
-6.76174
-0.0382515
-6.76174
6.78619
0.0138059
6.78619
2.56843
0.0910799
-2.56843
0.0587808
2.33691
0.0600153
2.33691
2.89058
-0.0199739
2.89058
-2.86874
-0.00186387
-2.86874
2.79646
-2.79646
2.72743
0.0690258
-2.72743
0.0775247
-11.1327
11.1151
-0.0350884
-11.0976
5.17313
5.17313
4.14954
0.58444
4.14954
-5.00026
0.215853
-5.00026
2.78876
-5.32608
3.07616
-6.48394
4.69283
-16.2856
4.3271
-8.40022
6.63878
-6.63878
6.52529
0.11349
-6.52529
0.135546
-1.20015
0.0663615
-1.20015
-3.04465
-0.599067
-3.04465
4.29007
-0.646354
4.29007
-3.02765
3.02765
-3.07664
0.0489971
3.07664
0.0459514
2.27529
0.0616186
-2.27529
-0.000434048
0.537548
0.115597
-0.537548
0.118064
3.4357
-0.191236
3.4357
-3.05553
-0.188933
-3.05553
-1.27275
0.0726014
1.27275
0.0755841
-5.81534
0.24792
-5.81534
-11.1909
0.0932959
-11.1527
-6.1066
-6.1066
2.33361
11.1264
-2.88969
0.0209512
2.88969
0.0259016
2.97422
0.0534296
-2.97422
0.055479
-2.85978
0.063321
2.85978
0.0589568
-2.63111
0.382598
-2.63111
-1.17158
1.17158
-1.34562
0.174036
1.34562
0.236401
1.41743
-0.235735
1.41743
1.01896
0.0416234
-1.01896
0.0605611
-3.70693
-0.0936395
-3.70693
6.51275
-0.234832
6.51275
-2.94695
-0.108578
2.94695
-0.056378
-0.0334562
11.1486
-5.13968
0.0338671
5.13968
-11.2095
11.2434
-3.25755
0.626444
3.25755
0.891988
5.2914
0.276022
-5.2914
0.291146
6.73135
0.0548394
-6.73135
0.0925673
-2.56302
-0.481628
-2.56302
-5.02667
-0.565294
5.02667
-0.736598
-11.4726
-0.20524
11.6779
-11.4163
6.02058
0.135971
-6.02058
11.3793
-1.10562
-0.0760748
1.10562
0.0659591
1.71977
-0.30234
1.71977
3.61355
-0.177849
-3.61355
-0.0933768
-6.66893
-0.0928117
6.66893
-0.156185
-2.12002
-0.443003
2.12002
-0.400245
-4.26691
4.30461
1.90896
-2.51084
-2.49766
-5.36647
1.85153
1.90129
4.30276
-10.2068
-6.07883
-10.0271
7.25715
-6.96601
-9.26503
9.18956
7.72436
-7.84689
-5.787
5.83295
6.48283
-6.44177
1.87876
1.87487
7.89639
-7.68743
-15.6256
15.2507
7.43326
-7.38101
15.7896
-15.8278
-17.892
17.9469
-5.70939
5.81462
-6.73064
6.72878
-6.9507
6.89432
-2.87984
-3.6041
13.1843
-13.0298
8.39376
-8.40202
-8.57303
8.88656
3.38198
0.922629
3.42889
-1.88231
3.76107
-1.87135
3.78032
2.67934
-5.55917
2.64675
-5.14441
4.18333
4.21043
-4.18303
-1.18345
-5.92028
5.94963
-5.82067
5.87963
9.00407
-9.09121
-1.88521
3.76008
-1.86864
3.76992
-3.42649
-2.3605
3.38034
0.922423
8.11282
5.0715
-8.29924
-1.72782
-7.98637
7.80852
-8.18622
7.99728
-0.433926
5.81688
-5.38296
4.43143
-1.55972
7.3766
5.69743
5.91329
5.86271
-5.58669
1.10329
-6.48625
-6.397
-2.44655
2.55211
2.38538
-2.26915
6.0066
1.71776
5.88312
-5.7015
-2.14539
-5.79514
3.82171
2.01124
3.87071
4.07689
2.40594
4.11686
3.03057
-3.03561
0.00503969
-3.05632
6.08689
0.724476
-5.41682
-4.4944
4.93095
2.96544
5.11362
-5.48577
-2.20166
-5.12653
-9.53008
-6.09549
-10.0954
10.0982
5.15249
9.78714
-11.9754
11.8192
4.73806
2.6952
4.79854
-4.88004
-2.50097
-4.82126
11.6159
-2.60485
-9.01104
-10.3396
-7.55246
10.3257
5.46382
10.9925
6.95435
11.0851
4.43495
7.18095
-9.89877
2.3463
-3.86531
-1.84408
-3.78779
3.683
2.13163
3.79723
-4.21427
-2.51637
-4.19332
-4.28839
-2.66231
4.30837
2.42041
-4.40428
-3.78194
4.51286
2.38146
4.05532
-10.1341
4.3449
-7.949
-9.24539
-3.7844
-9.10984
3.47864
2.61231
-6.09095
-2.08053
8.40839
-4.19796
7.22494
-5.12013
-3.28189
-5.12056
-6.81272
-1.7603
-6.66516
-8.84872
8.3671
-9.17123
8.52487
12.5856
-5.67461
-6.91096
-3.96852
-2.47325
3.92049
-0.491594
-3.71069
3.71573
0.0503754
3.83069
4.75332
4.26173
-3.88749
-1.93318
-3.83201
3.8309
2.04872
3.89422
6.78064
2.22343
6.7709
-6.4984
-2.5928
-6.62444
9.03789
-8.6559
2.90813
-2.83552
5.36012
2.63716
-5.16889
-2.81748
6.19816
-3.19461
-3.00354
-12.2147
10.576
1.63869
-4.83809
-0.406667
-0.222843
-5.48636
-3.77867
5.36048
0.55281
11.1288
7.35015
-5.51219
5.76011
6.16566
6.22358
-0.173423
5.77337
-5.14693
5.3288
-2.48351
-2.84529
5.35737
-5.49557
-1.26707
-5.37208
4.10502
0.387547
1.64036
-1.4047
-1.89706
-0.549484
-1.8365
1.43533
0.950053
1.55093
0.929988
1.62212
-2.94362
0.563577
2.38004
-2.01363
-1.70557
-3.71239
-1.14789
4.86028
5.72496
2.08356
-5.63159
-0.163553
2.60937
-2.56171
-0.72041
-2.99198
2.20363
-2.92404
-3.68989
-1.9384
5.62829
-3.37105
-0.460957
3.31762
0.553083
-3.82582
-2.09446
3.78662
0.330236
-3.12578
6.18851
-3.06273
-5.05896
2.5286
3.55829
4.53983
-4.78903
2.44644
2.34259
-1.23074
4.21741
0.896204
4.34346
-6.78264
4.58097
5.75271
3.13385
-6.07983
0.953292
-5.82934
8.46769
-7.28025
-1.18744
4.11346
4.35423
7.12186
5.46371
-5.72858
12.8504
-1.17632
-6.10393
7.00566
-3.87181
4.76235
-8.63416
-10.2261
4.12213
-9.16993
10.9375
-1.76757
-3.63154
-8.34387
12.8015
-1.20843
-11.593
8.57871
-4.15842
-4.2588
8.41723
-6.76328
6.75977
-1.95337
-4.8064
-10.1179
-5.70989
10.2107
1.60849
-9.84123
12.1875
-2.66028
4.06147
0.737067
4.12149
3.23539
-5.41033
2.17494
3.52789
-5.48126
2.06163
-7.47196
-6.75685
12.1272
-5.37031
-10.5412
-9.54691
-0.994343
2.54003
9.6475
-9.49438
7.45818
2.0362
3.30727
0.58695
-3.3763
-0.411488
0.238454
4.53427
-4.77272
4.03568
4.19173
3.33147
1.2028
3.84215
2.10748
-3.86805
-0.325269
-4.15469
1.49238
-1.73428
-3.68281
5.17519
-4.06945
0.386637
-2.74001
-3.50521
6.24522
-4.58409
3.03665
3.15187
5.08537
-4.91288
1.40768
-2.39894
-2.51395
2.66177
-4.39605
1.97871
3.19648
4.36018
0.57824
5.91002
6.21714
-8.52233
0.573326
11.2886
-9.56082
2.4675
8.61757
-9.92569
0.37878
-8.73106
1.0159
-5.21386
-5.07505
5.08904
-6.84934
-3.54513
6.15454
0.616364
-6.2376
-0.427557
-6.02843
-2.82029
-6.47143
-3.04384
-6.12738
-8.77243
-1.64064
-7.13178
6.72645
-6.67205
-3.42333
7.40865
1.11622
-7.3982
7.32212
-7.48094
7.1786
0.0951879
3.62054
4.35691
1.88367
-2.38981
4.27347
-5.08585
7.30928
-8.58788
3.50203
4.05205
-6.64485
-4.53582
5.03274
4.00514
5.31725
8.91393
-10.4028
1.48885
-10.7245
12.0361
-1.31158
-16.4858
5.76129
-7.57184
2.56804
0.340083
2.6344
0.591678
2.49472
-3.0864
-2.24385
-2.16826
-2.38891
-3.44533
5.83424
1.12141
-3.47686
2.35545
-3.55271
4.67412
-0.135217
-3.34164
5.30141
-2.80669
5.64149
-3.68793
1.95356
3.39147
5.73055
-2.33908
4.37765
-1.74049
1.88516
-4.22424
-1.56017
-2.96333
5.09495
-3.28189
3.66853
-0.322228
3.99076
-4.08512
0.890503
-0.753641
3.43809
3.69502
4.29124
-3.08844
2.93654
-4.67704
-1.28769
-4.0988
-0.902316
-0.282716
-3.76229
4.04501
6.03437
-6.31709
-5.2231
9.53966
-4.31656
7.72303
-5.38492
-2.33811
-4.24484
-4.41105
3.86225
1.91113
9.63415
0.237036
-5.62195
-4.90989
-4.0179
3.18034
2.14846
-1.86419
3.50287
2.08703
-0.446664
0.515707
1.03522
1.8471
-1.33139
0.251419
1.59568
-1.15329
1.88171
0.727663
-1.92333
0.0868319
-1.30504
3.50867
1.075
-2.02506
0.693665
1.02393
-3.50744
4.98086
-2.61091
-2.36995
6.00479
1.12231
-3.73323
4.24977
-3.86222
2.33171
-3.4796
-1.40152
-5.26374
-3.54598
-2.55214
4.90759
-3.2821
5.36566
1.2177
-5.2021
6.4198
-3.63028
1.69188
-3.09564
3.8233
-1.04384
-2.05179
2.86591
2.76238
-2.98076
-0.0112159
-0.114856
2.36759
-2.48244
-0.556451
-2.57008
-4.57345
4.90369
-2.10597
4.55241
2.1675
-1.91558
6.46799
1.81024
-3.72582
-3.24872
-3.70968
-1.38323
3.1566
-0.595477
-4.22579
-5.40187
4.13471
0.208752
-6.91199
7.71654
-0.804558
-3.94655
-0.634423
4.74788
-5.96098
0.479722
-3.89935
3.8172
4.7134
4.92215
-11.3832
-0.20988
-6.23067
1.15186
-7.38254
5.5061
-3.59982
7.72195
-10.3669
6.94352
-9.25063
6.53451
-0.848027
6.24647
-4.07153
2.76457
-8.47447
-6.86597
5.39901
-2.70381
6.13607
-3.05314
9.18921
-5.71342
5.15382
4.03539
-0.966226
-4.15433
-5.18259
4.21637
-0.0287729
4.09272
4.97465
-2.86717
4.64938
2.26304
-4.66198
-2.13301
-6.49918
1.8372
-3.34732
-1.9177
3.7549
3.16767
3.75462
1.24095
-3.34314
7.16835
-8.16269
-1.79804
-3.27701
5.15702
-0.94065
3.33874
-6.61574
-1.87513
4.86444
-0.846681
-4.01776
0.810167
-4.35529
1.6717
-6.02699
5.17765
-5.6052
2.19299
-9.76483
-5.20521
-5.13925
-2.23583
-5.24511
-7.60256
5.36673
-1.84128
5.48084
-8.55667
7.70999
-3.4794
8.84613
-5.43606
-1.03538
5.8363
1.3423
10.1884
0.189424
-4.72525
-1.92004
3.95427
-2.03423
1.2603
-3.57287
0.381399
2.48488
3.5199
-6.5899
-0.0549557
-4.7802
-3.9304
7.93554
5.60926
11.6436
1.24085
9.11349
-1.17795
10.3543
4.1393
4.3757
-3.02912
4.51797
1.01589
4.51792
-0.881922
2.83548
1.75248
1.77802
0.783686
2.31612
1.3789
3.20662
0.120227
-2.04803
4.62757
-8.64548
-0.99438
-8.06104
1.12853
5.8224
-4.69387
3.07186
-0.923401
1.03764
0.0571776
-1.54612
1.48895
-2.78811
-1.99279
-0.397108
-1.65359
2.34726
1.85508
-1.95015
-0.837965
0.379323
-3.9253
3.10027
-3.11149
-0.349107
6.0707
-2.78381
0.301371
-1.09194
-2.26871
-2.8182
2.73136
6.17587
0.292121
3.11314
5.19581
3.10135
0.234175
3.88561
-5.65319
-3.58635
-5.86307
-0.356971
4.39091
1.71222
7.93529
5.74761
4.80696
-1.80879
-9.97148
6.52976
-2.01179
5.21818
-1.20042
-4.82657
4.99943
2.30985
-5.61579
0.0105881
-4.81598
-6.82777
-0.556421
8.26641
-9.63201
8.59663
5.77634
1.35545
-4.41075
-0.728502
4.23671
0.138991
10.4933
-1.17967
-6.7247
7.90438
-4.64272
3.64834
0.760981
2.74189
2.24993
1.32653
-5.39818
-10.092
-1.98146
-1.52598
-4.3514
0.508872
-2.36395
6.27064
-2.6223
3.93253
5.28208
6.31971
-2.14196
-4.17513
6.45852
-2.52598
3.79373
)
;

boundaryField
{
    wall-4
    {
        type            calculated;
        value           uniform 0;
    }
    velocity-inlet-5
    {
        type            calculated;
        value           uniform -3.75095;
    }
    velocity-inlet-6
    {
        type            calculated;
        value           uniform -5.62643;
    }
    pressure-outlet-7
    {
        type            calculated;
        value           nonuniform List<scalar> 8(3.14081 7.68966 4.32985 9.77219 7.48089 5.21507 5.86492 9.01993);
    }
    wall-8
    {
        type            calculated;
        value           uniform 0;
    }
    frontAndBackPlanes
    {
        type            empty;
        value           nonuniform 0();
    }
}


// ************************************************************************* //
