/*--------------------------------*- C++ -*----------------------------------*\
| =========                 |                                                 |
| \\      /  F ield         | OpenFOAM: The Open Source CFD Toolbox           |
|  \\    /   O peration     | Version:  4.0                                   |
|   \\  /    A nd           | Web:      www.OpenFOAM.org                      |
|    \\/     M anipulation  |                                                 |
\*---------------------------------------------------------------------------*/
FoamFile
{
    version     2.0;
    format      ascii;
    class       volVectorField;
    location    "44";
    object      U;
}
// * * * * * * * * * * * * * * * * * * * * * * * * * * * * * * * * * * * * * //

dimensions      [0 1 -1 0 0 0 0];

internalField   nonuniform List<vector> 
918
(
(0.98509 -0.000551113 0)
(0.00479336 2.96626 0)
(0.0104239 0.832157 0)
(0.979828 0.00240821 0)
(-0.0114129 2.04277 1.63051e-20)
(-0.00705158 2.94891 -1.1056e-18)
(0.817765 1.16751 1.74287e-19)
(0.247092 0.125341 -6.46091e-21)
(0.999905 -0.00030122 0)
(0.0505099 0.833911 0)
(0.0116555 0.653138 0)
(0.731747 -0.014086 0)
(0.0115199 2.93015 0)
(0.00295245 2.7952 0)
(-0.0211903 3.15256 3.35373e-19)
(-0.02386 1.88962 -1.10001e-21)
(0.314652 0.0358796 4.22916e-19)
(0.203538 1.1923 1.22991e-19)
(0.961972 0.00387928 0)
(-0.0053357 0.586363 0)
(0.0482385 0.157096 -3.07414e-19)
(1.00217 -0.00520046 0)
(1.00076 -0.010152 0)
(0.975977 -0.00653214 0)
(0.580199 -0.027804 0)
(0.0186148 2.63829 0)
(-0.0149276 2.91016 3.89372e-19)
(0.0137341 0.91232 0)
(0.00671868 1.15772 0)
(0.0101111 0.891019 0)
(-0.0106706 2.61456 0)
(0.00153034 2.10335 -1.26949e-20)
(-0.0111042 1.86178 0)
(-0.0204441 2.98752 -3.98326e-23)
(-0.0169808 3.00539 8.78224e-19)
(0.00201125 3.00014 0)
(0.870782 -0.00884755 0)
(0.438483 0.973869 8.19647e-20)
(0.788765 1.18665 -1.84052e-19)
(0.934118 1.02224 2.06696e-19)
(0.660944 1.28363 -3.98893e-20)
(0.666713 1.26778 2.33018e-19)
(0.287316 0.19791 6.29961e-21)
(0.259799 0.0988058 0)
(1.1302 0.569206 0)
(0.257666 0.187975 2.87843e-20)
(0.217816 0.125294 -2.98871e-20)
(0.91958 -0.0072467 0)
(1.00028 0.000157043 0)
(0.999916 0.000343535 0)
(1.00351 -0.00767322 0)
(1.00096 -0.000945533 0)
(1.00019 2.33729e-05 0)
(0.0623421 1.8033 -3.35956e-19)
(0.0247688 1.01747 0)
(0.0818319 0.898845 0)
(0.0106891 0.970297 0)
(0.0311175 0.769345 0)
(0.0131136 1.99449 0)
(0.0104395 0.867185 0)
(0.0115727 0.669981 0)
(0.0111668 0.851729 0)
(0.0190362 0.634977 0)
(0.838901 -0.0145951 0)
(0.846712 0.0287524 0)
(0.766079 -0.00398831 0)
(0.817344 0.0372484 0)
(0.701669 -0.013216 0)
(0.0153217 3.00067 4.01856e-19)
(0.0116904 3.00843 0)
(0.00650721 3.00252 0)
(0.014146 2.99723 4.51696e-24)
(0.00834536 2.95852 -6.07443e-19)
(0.0152071 2.98186 0)
(0.0112663 2.90363 0)
(0.0249845 2.93037 8.94445e-25)
(0.00517743 2.82523 0)
(0.0315206 2.9163 0)
(-0.00449652 2.74531 0)
(0.302997 3.54445 0)
(-0.146279 3.62131 0)
(0.134141 3.24504 -3.09564e-19)
(-0.0102359 2.98501 0)
(-0.021408 2.00289 0)
(-0.0070051 2.15725 1.08473e-21)
(-0.0152863 1.89536 -7.98101e-21)
(0.418805 0.137802 -1.4638e-19)
(0.316636 0.0277846 -1.41413e-19)
(0.400069 0.150739 -4.40538e-19)
(0.297095 0.0503524 -2.90746e-19)
(0.191176 0.955005 0)
(0.220324 1.32801 -1.41766e-19)
(0.372802 1.27849 2.40612e-19)
(0.987353 0.00823759 0)
(0.941279 0.00544791 0)
(1.00031 0.000430628 0)
(1.00326 0.00949561 0)
(1.00287 0.00785154 -1.13964e-18)
(0.991773 0.00988947 8.70195e-19)
(-0.00411671 0.8127 0)
(0.00229819 0.58791 0)
(-0.0177469 0.960753 0)
(0.00112575 0.825354 0)
(-0.00211061 0.573025 0)
(0.0855874 0.162522 9.52421e-20)
(0.142662 0.140642 0)
(0.993362 -0.00824894 0)
(0.954486 -0.00615455 0)
(0.763057 0.044594 0)
(0.699814 0.056372 0)
(0.663473 -0.0232229 0)
(0.963814 -0.00476537 0)
(0.612781 0.080486 0)
(0.441376 0.00157196 6.29017e-19)
(-0.0364834 2.86416 2.89016e-19)
(0.041524 2.90951 0)
(0.0545924 2.88507 0)
(-0.00401 2.69915 0)
(-0.0135532 2.98502 3.68091e-19)
(-0.0181823 2.89507 0)
(-0.0159222 2.988 -1.14438e-18)
(-0.0131094 2.92537 3.9312e-19)
(0.0194333 1.35262 0)
(0.0358398 1.39027 0)
(-0.00662943 2.11861 8.59914e-23)
(-0.00392275 2.07983 0)
(-0.0243314 1.8743 0)
(0.93813 -0.00763194 0)
(0.857132 -0.00816297 0)
(0.862664 0.00569801 0)
(0.949214 -0.00785287 0)
(0.883687 -0.00735023 0)
(0.547391 1.16809 -1.04411e-19)
(0.596872 1.2068 0)
(0.406136 0.927142 1.51032e-20)
(0.345553 0.780879 0)
(0.897911 1.05998 -5.55917e-20)
(1.00557 0.866091 1.1246e-19)
(0.359758 1.3666 0)
(0.519082 1.34673 0)
(0.525541 1.29635 0)
(0.123114 0.210244 -1.2731e-19)
(0.322303 0.193152 0)
(0.287113 0.0875063 8.22166e-20)
(0.982967 0.921178 0)
(1.05702 0.777658 0)
(1.07765 0.718671 -8.69677e-20)
(1.11063 0.624085 0)
(1.16003 0.410416 2.36384e-20)
(0.95765 -0.00852502 0)
(0.962367 -0.010271 0)
(0.901991 -0.00736413 0)
(0.984348 -0.00918203 0)
(0.974838 -0.0093428 0)
(0.937445 -0.00597798 0)
(1.00017 0.00214953 0)
(1.00086 0.00142863 0)
(0.999868 0.000910074 0)
(0.0283495 2.0645 1.84411e-19)
(0.0982823 1.75447 0)
(0.0143376 2.17384 2.8966e-19)
(0.043456 1.85893 -2.44122e-19)
(0.0974189 1.21113 -1.00344e-19)
(0.0420709 1.09226 0)
(0.120306 1.04121 0)
(0.00445246 0.92804 0)
(0.0108471 0.721364 0)
(-0.00241466 2.23099 -5.07456e-22)
(0.0208219 1.99843 0)
(-0.00245577 2.23458 -2.32061e-20)
(0.0169737 2.00094 4.16688e-20)
(0.00686051 0.902213 0)
(0.00746924 0.882156 0)
(0.00504393 0.692159 0)
(0.00598727 0.829583 0)
(0.00650504 0.617539 0)
(0.93574 0.00977338 0)
(0.845174 -0.0153617 0)
(0.925873 -0.000714177 0)
(0.839805 -0.0121162 0)
(0.810945 0.000423719 0)
(0.900754 0.0200025 0)
(0.877132 0.024219 0)
(0.787845 -0.00127339 0)
(0.00392116 3.06426 -3.55143e-21)
(0.0169227 3.0576 0)
(0.0152852 2.96896 0)
(0.00887701 2.87618 0)
(0.961547 3.98062 0)
(1.30625 3.24424 4.49066e-19)
(0.0686374 3.07673 0)
(-0.0234401 2.90833 0)
(0.0128763 1.40799 0)
(-0.026935 1.70805 0)
(0.00394049 1.55656 0)
(-0.0303991 2.56831 -1.45845e-21)
(-0.0118061 2.25898 0)
(-0.0202422 2.40486 0)
(0.010151 1.92413 5.17349e-22)
(-0.00377532 2.23121 6.82738e-21)
(-0.0056231 2.18833 8.05827e-21)
(-0.00526762 1.90381 0)
(0.452834 0.120481 2.21022e-19)
(0.349533 0.014283 -2.17105e-19)
(0.271928 1.5749 0)
(0.249181 0.741359 -1.27779e-19)
(0.17757 1.66665 -4.21942e-19)
(0.204204 1.20901 4.22899e-19)
(0.90164 0.00585223 0)
(0.967319 0.0107591 0)
(0.974395 0.0106869 0)
(0.923158 0.00592187 0)
(0.0039878 0.814269 0)
(-0.0104303 0.809268 0)
(0.00716263 0.593916 0)
(0.222663 0.180096 2.65788e-19)
(0.18775 0.164367 -3.14728e-19)
(0.185283 0.132683 0)
(1.08758 0.0842924 1.20452e-20)
(1.06697 0.0382296 0)
(1.00396 0.0392261 0)
(0.900347 -0.00537355 0)
(0.488071 0.104553 0)
(0.53503 0.0889753 -1.00653e-18)
(0.390083 0.0109187 3.76835e-19)
(0.00917183 2.98094 3.07538e-19)
(-0.0334119 2.86664 1.8938e-20)
(0.00191251 3.04965 -7.50992e-21)
(0.0208654 3.04317 2.77159e-19)
(-0.0153317 2.99631 1.29006e-20)
(-0.0128055 2.94952 -5.20044e-23)
(-0.0175548 3.01147 -2.37059e-19)
(0.0142478 3.02286 1.70611e-19)
(0.00674335 3.03675 -2.76843e-19)
(0.932778 -0.00217086 0)
(0.938905 -0.00318568 0)
(0.843943 -0.00764326 0)
(0.956377 0.0115933 0)
(0.942685 0.0129358 0)
(0.881159 0.00542322 0)
(0.917556 0.016226 0)
(0.926146 0.0148216 0)
(0.838149 0.00281652 0)
(0.760752 1.43327 2.29106e-20)
(0.803354 1.52469 0)
(0.215998 0.353467 3.14016e-20)
(0.252329 0.721706 2.50105e-19)
(0.293324 0.773405 -1.50116e-19)
(0.303484 0.557079 2.9173e-19)
(0.33911 0.820045 6.62996e-19)
(0.139381 0.240175 1.51202e-19)
(0.372274 0.171752 3.07941e-19)
(0.350826 0.185967 8.02992e-20)
(0.296939 0.0647009 1.53486e-19)
(1.15203 0.466402 1.14425e-20)
(1.16695 0.266139 9.44936e-21)
(0.00753685 2.22427 1.12711e-19)
(0.0423367 1.92825 0)
(0.965406 0.0305044 0)
(0.939044 0.0125727 0)
(0.866078 -0.0178074 0)
(0.0112759 3.07441 0)
(0.0205094 2.94384 5.04441e-19)
(0.0171737 2.95625 0)
(0.00663875 2.85058 -5.02808e-19)
(0.00557996 3.09077 1.19248e-19)
(0.00593749 3.08192 0)
(0.888434 1.82808 -6.81812e-20)
(1.27125 2.37795 1.1648e-19)
(0.868604 1.93181 -4.7504e-19)
(0.0204961 2.98196 -2.67586e-19)
(0.0359993 3.00262 0)
(-0.0317838 2.88153 0)
(-0.00776693 2.2113 -6.09996e-21)
(-0.00786977 2.23504 -1.60583e-20)
(0.0129947 1.96221 -3.68098e-21)
(0.278979 1.39128 4.17196e-19)
(0.203237 0.538103 -2.84008e-19)
(0.0535939 1.99223 3.17835e-19)
(0.153588 1.88522 -3.81838e-19)
(0.149256 1.48443 4.06908e-20)
(0.000687 3.11901 -7.39912e-19)
(0.0143642 3.11819 8.34025e-19)
(-0.00947889 2.98104 3.38165e-19)
(-0.00424276 2.97793 -3.20278e-19)
(-0.0213227 2.88178 -3.44598e-19)
(0.00772967 3.09974 -8.8901e-19)
(0.00153053 3.10516 8.94085e-19)
(0.294021 0.732189 0)
(0.261416 0.731098 -5.18391e-19)
(0.111786 0.249916 2.30906e-19)
(0.356135 0.941878 4.51078e-19)
(0.185885 0.280152 -6.95864e-19)
(1.16695 0.174658 3.1671e-20)
(1.16804 0.314884 0)
(1.15278 0.125656 -8.6787e-21)
(-0.00138642 2.24262 -7.83595e-22)
(0.000927908 2.23523 0)
(0.0262243 1.96603 0)
(0.352196 1.2958 -1.49243e-19)
(0.379217 1.13639 -3.24936e-19)
(0.189716 0.372547 5.77589e-19)
(1.00554 -0.0111755 0)
(1.00751 -0.00743603 2.11645e-19)
(0.0169364 1.32584 0)
(-0.00842059 1.2949 0)
(1.00198 0.00345067 7.99274e-22)
(1.0038 0.0100417 4.282e-19)
(-0.0166404 2.55288 1.91834e-21)
(-0.0243631 2.59453 0)
(0.0332661 3.17357 1.8963e-19)
(0.387201 3.47858 0)
(1.17464 0.638578 -2.92988e-20)
(1.01322 0.0136001 -7.65898e-22)
(1.02127 -0.0106654 0)
(1.00176 0.000115103 2.66561e-23)
(0.103837 1.35338 0)
(0.152977 2.57015 0)
(0.0194153 1.29367 0)
(0.00307409 2.62555 2.39145e-20)
(-0.0186042 2.58514 1.10835e-20)
(1.00161 0.0290661 9.96881e-22)
(1.06209 0.00328926 0)
(1.09347 0.0222581 0)
(-0.0232823 1.74458 0)
(-0.0229182 2.59354 0)
(0.0021948 1.28459 0)
(0.307831 1.46637 -6.37929e-20)
(1.01125 -0.00988487 0)
(1.00939 -0.0153637 0)
(1.00241 0.000639889 2.68818e-19)
(1.00538 -0.00478135 -3.19115e-19)
(1.0012 -0.0010516 0)
(-0.00682379 1.46612 0)
(0.00306818 1.36841 0)
(0.0128921 1.42642 0)
(0.00189836 1.27233 0)
(-0.000723837 1.25145 0)
(-0.00137615 1.22511 0)
(1.0343 -0.00696081 0)
(1.02079 0.0161494 -3.591e-22)
(0.80775 1.2545 9.16487e-20)
(1.00221 0.000401111 -2.6804e-19)
(1.00402 0.00534529 3.18861e-19)
(1.00118 0.00213031 0)
(1.01342 0.0105684 2.65997e-19)
(1.00855 0.00868409 -3.22196e-19)
(1.00929 0.0156807 0)
(-0.0268255 2.62151 0)
(-0.0266161 2.60199 -3.06012e-21)
(-0.0256961 2.61524 2.40963e-21)
(1.22963 0.250496 2.56541e-19)
(1.15634 0.0784697 0)
(0.0431451 3.07335 -4.11049e-19)
(0.0648866 2.85285 -2.93138e-20)
(0.140509 3.19731 6.23203e-19)
(0.13796 3.22804 -8.03864e-20)
(0.13225 3.2345 0)
(0.020794 3.13631 1.09294e-19)
(0.074944 3.16149 4.00966e-19)
(0.0685651 3.18549 -2.0782e-19)
(0.0241481 3.1285 0)
(0.639102 0.28259 0)
(0.560903 0.330803 0)
(1.12179 0.667939 7.03562e-20)
(1.14416 0.797829 -6.94807e-20)
(1.1892 0.554878 0)
(1.23525 0.498149 0)
(1.01633 0.0136747 -5.02296e-19)
(1.01512 0.0148233 6.29578e-19)
(1.02516 -0.0101553 0)
(1.02313 -0.0124039 0)
(1.00639 0.0025983 0)
(1.01012 0.00361104 0)
(1.00461 0.00186475 0)
(1.00984 0.00607684 0)
(1.00804 0.00631327 0)
(1.00442 0.00442677 0)
(0.0917922 1.34973 0)
(0.0885276 1.31945 0)
(0.122626 1.38538 0)
(0.144671 1.39979 0)
(0.14718 2.59381 0)
(0.187637 2.65808 -1.90116e-19)
(0.099758 2.65071 0)
(0.0908639 2.65182 9.23827e-20)
(0.0430679 2.68178 -7.51355e-20)
(0.0175107 1.30613 0)
(0.0229388 1.23199 0)
(0.0253025 1.31431 0)
(0.0237876 1.259 0)
(0.0041028 1.97789 -1.12984e-20)
(-0.0182716 2.6134 3.87398e-21)
(-0.00763497 2.66693 2.04236e-20)
(-0.0157809 2.68896 0)
(-0.022583 2.62073 -2.38818e-20)
(-0.0233278 2.61531 -8.00755e-21)
(0.0152003 1.97787 1.01615e-20)
(-0.00508599 2.39867 -5.01439e-21)
(-0.0114466 2.42029 -2.42773e-20)
(1.01151 0.0368885 5.05279e-19)
(1.00676 0.0170802 -6.28396e-19)
(1.00277 0.0434183 -5.09222e-19)
(0.981461 0.0237537 6.4678e-19)
(1.06325 0.00756699 0)
(1.04855 -0.00897367 0)
(1.09232 0.0313965 0)
(1.07279 0.0116433 0)
(1.07086 0.000689241 0)
(1.13293 0.0821787 0)
(1.1079 0.042402 0)
(1.11364 0.0278992 0)
(-0.0205353 2.44596 -4.24413e-22)
(-0.0119777 2.01638 0)
(-0.0139515 2.22629 0)
(-0.0238471 2.61522 -1.05208e-21)
(-0.0205878 2.62407 -1.39371e-22)
(0.00594764 1.56204 -1.76882e-21)
(-0.00114015 1.49535 1.77889e-21)
(-0.00438144 1.37985 0)
(-0.00671079 1.38759 0)
(-0.0088856 1.38369 0)
(0.00653564 1.28644 0)
(0.0126702 1.23045 0)
(0.377468 1.48679 1.03374e-19)
(0.431343 1.48573 5.5296e-20)
(0.593848 2.43887 -1.01988e-19)
(0.403193 2.53599 2.96901e-19)
(0.344921 2.06614 3.19973e-20)
(1.02111 -0.00815358 0)
(1.01546 -0.00987776 0)
(1.01497 -0.0160787 0)
(1.00736 -0.00123643 0)
(1.00494 -0.00105358 0)
(1.00771 -0.00463868 0)
(1.00918 -0.00375164 0)
(1.01408 -0.00447888 0)
(1.02145 0.0163031 4.93446e-19)
(1.01816 0.0161921 -6.26699e-19)
(1.02177 0.0182319 -4.94009e-19)
(1.01963 0.0170225 6.20025e-19)
(0.771738 1.30625 0)
(0.712219 1.35651 8.97546e-20)
(0.876096 1.21599 3.14035e-20)
(0.936498 1.15151 -4.17561e-20)
(1.15802 2.60213 1.28089e-19)
(0.805523 0.11443 2.45502e-19)
(1.15247 0.110129 0)
(1.20755 0.193154 -2.05569e-19)
(1.19774 0.144 -8.7088e-21)
(1.00242 0.148083 0)
(0.15609 2.9621 2.14725e-19)
(0.111659 2.86873 -5.49442e-19)
(0.0274209 2.38081 3.41099e-19)
(0.0960588 -0.0309765 -1.44416e-19)
(0.335628 3.42149 -8.55663e-20)
(0.197037 3.3205 0)
(0.227406 3.35371 1.11356e-19)
(0.254552 3.04194 -7.08752e-19)
(0.359257 3.20239 0)
(0.00696305 3.1206 2.08173e-20)
(0.0158784 3.12937 -2.49004e-19)
(0.0151781 3.12515 3.65185e-19)
(0.0353506 3.13993 0)
(0.0339607 3.14994 0)
(1.19099 2.64141 0)
(0.550301 0.833765 -2.16745e-19)
(1.06638 0.970272 6.58365e-21)
(0.969119 1.07071 0)
(0.826188 0.954705 -4.98815e-20)
(1.05794 0.878578 1.05753e-20)
(0.345913 0.382394 -3.85605e-19)
(0.679843 0.314275 -7.96252e-21)
(0.636992 0.223945 1.74991e-19)
(0.57658 0.377573 1.29161e-20)
(0.490805 0.329015 -5.21331e-19)
(0.652797 0.333027 0)
(0.710031 0.414335 2.95346e-19)
(0.715852 0.411545 0)
(0.610833 0.366891 0)
(0.576599 0.273672 0)
(0.807783 0.606415 1.76467e-19)
(1.22082 0.28053 -2.21007e-19)
(1.22843 0.409591 0)
(1.24831 0.348239 0)
(0.731412 0.189061 2.60021e-19)
(0.856559 0.538279 -1.62e-19)
(0.752445 0.508315 2.87497e-19)
(0.955089 0.425144 -3.14327e-19)
(1.01997 0.0148296 3.35955e-19)
(1.01809 0.0144309 -3.3818e-19)
(1.0159 0.0162045 0)
(1.03594 -0.00622395 0)
(1.0296 -0.00865766 -3.16929e-19)
(1.02751 -0.0126264 3.14423e-19)
(1.02498 0.00991368 0)
(1.02379 0.0133571 0)
(1.01119 0.00400934 0)
(1.0143 0.00893513 0)
(1.01475 0.00412524 0)
(1.01386 0.00296277 0)
(0.0611043 1.33218 0)
(0.0617112 1.28711 0)
(0.141516 1.35475 -1.12192e-20)
(0.276733 1.46471 3.27831e-20)
(0.168102 1.43437 7.00638e-20)
(0.210057 1.4457 -1.141e-19)
(0.165077 1.37805 0)
(0.129257 1.59351 -3.58881e-20)
(0.109639 1.56169 0)
(0.346922 2.0126 -4.62437e-20)
(0.347981 2.35936 2.56722e-19)
(0.190399 1.44722 3.13822e-20)
(0.250559 1.37107 3.40986e-21)
(0.197182 1.36088 -2.74059e-21)
(0.259475 1.3184 -5.42252e-20)
(0.228677 1.57687 0)
(0.258832 1.60661 5.62449e-20)
(0.0306533 2.26352 -1.76826e-20)
(0.0446606 2.66974 0)
(0.0630812 2.40157 7.13592e-20)
(0.0588724 2.42434 0)
(0.0713566 2.66305 -1.028e-19)
(0.0539452 2.69811 0)
(0.0301974 1.40382 -2.75186e-21)
(0.0353708 1.45576 0)
(0.0299376 1.37407 0)
(0.0246267 1.37614 3.09792e-21)
(0.00194775 2.6538 -8.47581e-21)
(0.0314808 2.6972 8.57121e-20)
(0.013142 2.7224 6.47342e-22)
(0.00673615 1.82579 8.9434e-21)
(-0.00209249 1.67326 4.13779e-21)
(0.0195832 1.28346 0)
(0.0259375 1.21586 0)
(0.050959 1.57007 6.47368e-21)
(0.028286 1.44046 4.93494e-21)
(0.0390512 1.5069 -6.04116e-21)
(0.0403843 1.59483 0)
(-0.0259659 2.28208 3.4919e-20)
(-0.0331878 2.56315 -1.58794e-20)
(-0.00880562 2.45552 -4.67729e-22)
(-0.00113667 1.84139 -1.07992e-20)
(-0.0239882 2.50454 -3.51816e-21)
(-0.0187437 2.44836 1.4873e-20)
(1.01968 0.0211378 -3.33649e-19)
(1.01584 0.0267778 3.35703e-19)
(1.0148 0.0165054 0)
(1.01204 0.0707415 4.67341e-19)
(0.990307 0.0603552 -5.25285e-19)
(0.947996 0.0417199 5.89394e-19)
(1.01415 0.104914 -6.2374e-20)
(1.04209 -0.00606602 0)
(1.05038 -0.00186868 3.03685e-19)
(1.03858 -0.010507 -3.03022e-19)
(1.06993 0.0415787 -1.79337e-20)
(1.06368 0.0217296 1.54586e-19)
(1.06345 0.0523511 0)
(1.05319 0.0473491 -5.54522e-20)
(1.03273 0.0402658 0)
(1.02639 0.0371622 0)
(1.02757 0.0135767 0)
(1.02409 0.0161303 0)
(1.03957 0.0321186 1.13991e-19)
(1.03885 0.0257529 -2.51535e-19)
(1.04985 0.0315093 -1.21388e-19)
(1.04878 0.0316123 -1.33484e-19)
(1.06859 0.061552 2.6074e-19)
(1.09212 0.050652 0)
(1.10293 0.0926206 0)
(-0.0205226 2.28075 7.46769e-21)
(-0.0140575 2.02304 -9.16636e-22)
(-0.016341 2.02293 0)
(-0.0256865 2.45519 -7.76667e-21)
(-0.0177658 2.41176 1.30215e-21)
(-0.0298872 2.48603 6.49933e-22)
(-0.0202425 2.63047 6.72862e-21)
(-0.0228935 2.57181 -7.52441e-22)
(-0.0182243 2.52139 2.38805e-21)
(-0.0159829 2.62649 -6.6273e-22)
(-0.0221833 2.62745 1.61981e-21)
(0.00178042 1.47988 -5.78648e-22)
(0.0153138 1.61116 -1.11934e-21)
(0.357281 1.42836 -4.1648e-20)
(0.356997 1.36995 2.37889e-20)
(0.652932 1.40962 -8.67597e-20)
(0.522089 1.47633 -5.35896e-20)
(0.586452 1.44334 0)
(0.582555 2.41694 9.6043e-20)
(0.65495 2.41507 1.46231e-19)
(0.403668 2.51312 3.71645e-20)
(0.405652 2.54689 -2.60955e-19)
(0.519416 2.49529 2.55477e-19)
(0.543244 2.45501 0)
(0.479658 2.51026 -2.401e-19)
(0.236995 2.58512 5.01292e-19)
(0.346993 2.5657 -3.43255e-20)
(0.280805 2.64845 -6.8267e-19)
(0.933183 2.37762 3.25157e-19)
(0.827326 2.38551 0)
(1.01091 0.00027275 1.08313e-20)
(1.01524 -0.00546971 -8.97389e-21)
(1.01757 -0.00346243 -1.61672e-19)
(1.01486 -0.000920358 1.63442e-19)
(1.0122 0.00102197 0)
(0.637437 1.27765 0)
(0.65043 1.17314 0)
(0.754038 1.07981 0)
(0.649868 1.13174 0)
(1.18632 2.61217 2.68775e-20)
(1.07351 2.36144 0)
(0.852512 2.17698 1.66332e-21)
(0.822124 2.44491 0)
(0.922579 2.53699 -1.76153e-19)
(0.960078 2.49656 1.14433e-19)
(0.817024 0.174524 0)
(0.780138 0.143195 6.65597e-20)
(0.922134 0.14285 3.91579e-19)
(0.835377 0.145273 -1.44889e-19)
(0.805998 0.0856316 -4.51199e-19)
(1.07261 0.231314 -3.89712e-19)
(0.994906 0.29651 -6.45374e-21)
(0.925705 0.284253 3.60798e-19)
(1.00307 0.221553 3.02812e-19)
(0.953147 0.186279 -5.20064e-19)
(0.920982 0.187676 6.48013e-20)
(0.953659 0.246369 -1.38564e-19)
(0.93469 0.21429 0)
(0.99231 0.181312 2.56503e-19)
(1.04505 0.184955 0)
(1.04102 0.214586 0)
(1.09975 0.117969 1.22372e-19)
(1.07391 0.174701 -5.98965e-21)
(1.07001 0.231584 -6.57626e-20)
(1.10203 0.201301 0)
(1.02206 0.045072 2.58827e-19)
(1.04233 0.0575482 3.20033e-19)
(1.03449 0.0438358 -2.54139e-19)
(1.04336 0.0645333 -2.15021e-19)
(1.01787 0.0724773 -3.29632e-19)
(0.988673 0.153414 0)
(1.0022 0.103382 0)
(0.968419 0.0680902 -2.09457e-19)
(0.914111 0.0885814 8.17584e-20)
(1.03871 0.100445 2.97933e-19)
(1.06875 0.117391 -3.51162e-19)
(1.07614 0.149323 3.10514e-19)
(1.02851 0.143769 0)
(1.07253 0.107287 0)
(1.05579 0.086041 -1.43302e-19)
(1.04554 0.094074 -2.43555e-19)
(0.577956 1.07954 6.13962e-20)
(0.623042 1.39077 -2.55709e-20)
(1.1607 2.73756 -9.94047e-20)
(1.23739 3.07366 -7.28969e-22)
(1.25006 2.70976 -6.36255e-20)
(1.27999 2.7079 -3.11073e-20)
(1.16693 2.3513 8.11302e-21)
(1.22592 2.96767 -5.7595e-20)
(1.24768 2.93655 1.25092e-19)
(1.24306 3.22835 -7.8861e-20)
(1.36528 2.96487 9.08306e-20)
(1.30316 2.88923 0)
(0.557257 0.838609 -2.06669e-20)
(0.111468 1.24083 2.52439e-19)
(0.558101 0.432607 2.52561e-19)
(0.367283 0.172262 2.72808e-19)
(0.516809 0.376288 2.95526e-19)
(0.555219 0.459662 -4.87197e-19)
(0.547146 0.476048 3.9919e-19)
(0.489901 0.385814 -1.50633e-19)
(0.402224 0.313252 3.3857e-19)
(0.734902 0.252178 -1.48652e-19)
(0.696991 0.276426 0)
(0.670993 0.198558 3.36309e-21)
(0.737649 0.508948 1.55109e-19)
(0.713286 0.471113 -5.67457e-19)
(0.611324 0.467861 5.04722e-21)
(0.625419 0.452216 0)
(0.67478 0.728685 1.68805e-19)
(0.849281 0.778562 1.64816e-19)
(0.762489 0.862112 -1.92077e-19)
(0.885814 0.806114 -6.64599e-20)
(0.908928 0.837671 -1.72423e-20)
(0.915021 0.839617 1.7715e-20)
(0.858355 0.637169 -2.93787e-19)
(0.932395 0.705489 6.19317e-20)
(0.985291 0.711884 0)
(0.967677 0.680077 -8.75653e-20)
(1.02325 0.319581 9.07065e-20)
(1.12412 0.291148 1.29247e-19)
(1.05971 0.266369 1.56208e-19)
(1.01516 0.361854 -1.83475e-19)
(1.06085 0.421058 0)
(1.10204 0.40745 0)
(0.91961 0.354319 2.92645e-21)
(0.842596 0.292337 0)
(0.882808 0.290345 1.69011e-19)
(0.913717 0.291317 -3.38926e-21)
(0.945726 0.42559 8.76638e-19)
(0.906341 0.485504 2.29092e-19)
(0.907631 0.449642 -2.43261e-19)
(0.822922 0.433335 2.60927e-19)
(0.808198 0.431234 1.57075e-19)
(0.774 0.411463 -1.52929e-19)
(1.02762 -0.000338189 2.66759e-19)
(1.01984 -3.24312e-05 0)
(1.01845 0.00085909 1.76768e-19)
(1.02136 -0.00211147 -3.98531e-19)
(1.02212 0.00442692 1.94034e-19)
(1.02044 0.011263 -4.08314e-19)
(1.02142 0.0105719 0)
(1.02102 0.0105537 -8.43636e-20)
(1.01589 0.00780341 2.11315e-19)
(1.01682 0.0103339 -1.0691e-19)
(1.01751 0.00961727 7.87102e-20)
(0.0264122 1.30976 0)
(0.0318088 1.35078 0)
(0.0401101 1.31002 0)
(0.0399843 1.26783 0)
(0.065439 1.37538 7.25621e-21)
(0.0742038 1.34485 1.37839e-21)
(0.115968 1.50167 -1.36282e-20)
(0.0893805 1.35663 6.45429e-21)
(0.0332478 1.44604 -1.52415e-20)
(0.0370247 1.43885 1.17386e-20)
(0.0592951 1.35817 -1.44873e-21)
(0.0531618 1.35941 -2.2086e-21)
(0.0448512 1.33546 -4.23806e-22)
(0.0384021 1.3586 -1.38271e-21)
(0.107146 2.37101 -7.69653e-20)
(0.0916027 2.42044 0)
(0.166787 2.06323 4.8945e-20)
(0.111879 1.70646 2.03523e-20)
(0.234083 2.05308 -3.92761e-20)
(0.204753 2.43857 0)
(0.268546 2.39263 -2.52938e-19)
(0.304581 2.39108 1.78865e-19)
(0.221126 2.00619 -1.14502e-19)
(0.149769 2.16688 7.66247e-20)
(0.151978 2.28205 0)
(0.0163504 1.87672 -1.69011e-20)
(0.000907146 2.39771 -3.63277e-20)
(0.00640583 2.15143 0)
(0.0118407 2.45893 -5.62183e-21)
(0.026847 2.3042 1.31554e-20)
(0.0216969 1.38634 -1.48988e-22)
(0.0236025 1.37268 3.78595e-21)
(0.0229362 1.37722 -2.33601e-21)
(0.0248585 1.37663 1.28303e-22)
(0.0297047 1.40806 0)
(0.0190115 1.35876 0)
(0.0126376 1.28201 -4.59509e-21)
(0.0136986 1.34987 9.16159e-22)
(0.0184742 1.35076 0)
(0.0174541 1.27601 -3.10638e-21)
(0.027674 1.20951 7.11076e-21)
(1.03977 0.0106537 0)
(1.04561 0.00719173 -2.82812e-20)
(1.0385 0.0208145 -2.0282e-19)
(1.04791 0.0195703 0)
(1.05153 0.0194375 0)
(1.0365 0.0112121 -2.81304e-21)
(1.03122 0.0107801 3.26818e-19)
(1.03159 0.0163541 3.99734e-19)
(1.02563 0.0203206 0)
(1.02311 0.0206716 0)
(1.03492 0.0251399 2.03177e-19)
(1.02617 0.0261135 0)
(1.0245 0.025941 0)
(-0.0200857 2.02151 0)
(0.019435 1.65083 -3.73322e-21)
(0.00326897 1.76079 -1.50893e-20)
(0.00970177 1.36058 0)
(-0.0122158 1.543 -9.44382e-22)
(0.00944952 1.44397 5.85862e-22)
(0.00819146 1.36914 0)
(0.379544 1.67394 0)
(0.362736 1.29208 -4.52386e-20)
(0.307092 1.34002 0)
(0.416244 1.28994 2.16019e-20)
(0.466317 1.45581 0)
(0.4459 1.40107 2.05207e-21)
(1.03114 2.68336 -6.92248e-21)
(0.958636 2.41196 -3.97392e-19)
(0.907718 2.19442 4.55182e-19)
(0.840529 2.37788 1.12461e-19)
(0.840885 2.49822 0)
(0.912997 2.49144 0)
(0.915517 2.37258 0)
(0.895569 2.35904 -4.11643e-19)
(0.684633 2.46096 -1.72123e-19)
(0.79587 2.45665 -4.16711e-20)
(0.808435 2.42641 3.29917e-20)
(0.686366 2.39147 0)
(0.792507 2.39068 0)
(0.747558 2.40059 -1.57389e-19)
(0.765105 2.49341 0)
(0.621046 1.10629 0)
(0.486676 0.91929 -2.09163e-19)
(0.571135 0.946775 -1.35352e-20)
(0.5272 1.0524 0)
(0.530256 1.00247 3.16609e-19)
(0.785199 0.888204 -5.56217e-20)
(0.787944 1.01254 0)
(0.761427 0.960766 8.3008e-20)
(0.645878 1.04314 0)
(0.654872 0.946819 0)
(1.16696 2.75312 -1.05123e-19)
(1.14385 2.81858 -4.85428e-20)
(0.939155 2.33177 5.70901e-20)
(0.899912 2.31138 -3.93908e-20)
(1.12986 2.72457 0)
(1.08217 2.69309 4.9644e-20)
(1.08877 2.47797 -1.39119e-19)
(0.98029 2.23386 -1.3944e-20)
(0.495397 1.35242 0)
(0.505859 1.07251 -5.38108e-20)
(0.564815 1.1499 0)
(0.862003 0.229545 0)
(0.785131 0.18751 0)
(0.723759 0.146243 0)
(0.857866 0.233423 -2.67115e-19)
(0.755879 0.2219 1.56415e-19)
(0.929835 0.0748706 -1.6988e-19)
(0.945692 0.121233 0)
(0.924322 0.134327 7.26904e-20)
(0.863608 0.110227 2.92809e-19)
(0.833523 0.0701287 -1.83628e-19)
(1.17335 3.36259 -3.06572e-19)
(1.22509 3.28453 0)
(1.13901 3.38051 -6.02368e-19)
(0.637826 3.53909 5.26612e-19)
(0.849487 3.1072 2.02422e-20)
(0.51581 0.843957 2.53469e-19)
(0.420789 0.839214 0)
(0.321698 0.482493 -6.26131e-20)
(0.460082 0.673152 3.54822e-19)
(0.552407 0.446277 -8.63618e-20)
(0.521782 0.504654 9.80146e-20)
(0.660618 0.521004 2.12873e-19)
(0.695901 0.539517 0)
(0.653996 0.599211 0)
(0.609078 0.538203 0)
(0.986164 0.597366 4.36304e-20)
(0.910212 0.534137 -2.21206e-19)
(0.933024 0.56539 1.71789e-19)
(0.966034 0.5065 -1.71997e-19)
(1.07851 0.479549 0)
(1.06795 0.561682 -4.35446e-20)
(0.846956 0.390178 -3.56203e-19)
(0.851184 0.379431 -4.32543e-19)
(0.795365 0.374001 2.76281e-19)
(0.794652 0.350395 -2.81796e-19)
(0.843519 0.312847 -2.21011e-19)
(0.792141 0.311272 2.71872e-19)
(1.02671 0.0056295 -2.07384e-19)
(1.02635 0.00604357 4.29608e-19)
(1.02904 -0.000598508 2.58504e-19)
(1.03337 0.000871283 -3.13708e-19)
(1.0331 0.00778407 0)
(1.02997 0.00862991 -5.1393e-19)
(0.0626193 1.63806 1.13981e-20)
(0.0454062 1.57041 0)
(0.0869265 1.68423 8.13662e-20)
(0.0950962 1.66654 -7.26115e-20)
(0.0895493 1.51823 2.54548e-20)
(0.0888968 1.50614 0)
(0.020583 1.67193 0)
(0.00136596 1.47365 -1.29457e-21)
(0.00773831 1.4177 1.16279e-21)
(-0.000335507 1.5377 2.94131e-21)
(0.00925214 1.87938 -2.11684e-21)
(-0.00870656 1.92983 2.85114e-21)
(0.495637 1.37054 -1.15729e-19)
(0.490474 1.37685 1.24697e-19)
(0.44279 1.28838 -2.03207e-20)
(0.431541 1.28791 3.54407e-21)
(0.624815 1.29768 0)
(0.543449 1.38583 3.53174e-20)
(0.560005 1.39695 -3.42717e-20)
(0.453919 1.27461 1.97144e-20)
(0.509932 1.23204 0)
(0.55521 1.19467 0)
(0.646094 2.41863 2.58329e-19)
(0.669699 2.4615 5.29017e-19)
(0.708649 2.47545 -3.62946e-19)
(0.606967 2.45633 -8.60248e-20)
(0.561366 2.54266 1.23e-19)
(0.522235 2.52401 -3.1792e-19)
(0.974298 2.37783 -2.53418e-19)
(1.01036 2.38809 0)
(0.917858 2.17355 -2.95444e-19)
(1.05249 2.67377 0)
(1.05556 2.66057 0)
(0.603258 2.25082 -7.20424e-20)
(1.02963 3.15555 4.58615e-20)
(0.896314 3.01558 1.15894e-20)
(0.283928 0.896523 0)
(0.320223 0.735095 -1.33467e-19)
(0.463084 0.705266 -1.3365e-19)
(0.398309 1.97794 0)
(0.4787 2.78542 -1.4331e-20)
(0.433691 2.56898 0)
(0.690522 0.666117 -3.56045e-19)
(0.778051 0.680815 4.78116e-19)
(0.80521 0.615312 -4.6916e-19)
(0.678729 0.630581 -4.59894e-20)
(0.729419 0.586637 -1.88484e-19)
(1.01521 2.76088 -3.46376e-20)
(1.04786 2.83194 -5.13608e-20)
(0.654485 2.13248 2.96576e-19)
(0.583368 1.71093 -2.05287e-19)
(0.7115 1.90445 -1.76205e-19)
(0.996956 2.46675 -4.58255e-20)
(0.998165 2.45386 1.08848e-19)
(0.667158 1.86998 9.86085e-21)
(0.461011 1.33402 6.35644e-20)
)
;

boundaryField
{
    wall-4
    {
        type            noSlip;
    }
    velocity-inlet-5
    {
        type            fixedValue;
        value           uniform (1 0 0);
    }
    velocity-inlet-6
    {
        type            fixedValue;
        value           uniform (0 3 0);
    }
    pressure-outlet-7
    {
        type            zeroGradient;
    }
    wall-8
    {
        type            noSlip;
    }
    frontAndBackPlanes
    {
        type            empty;
    }
}


// ************************************************************************* //
