/*--------------------------------*- C++ -*----------------------------------*\
| =========                 |                                                 |
| \\      /  F ield         | OpenFOAM: The Open Source CFD Toolbox           |
|  \\    /   O peration     | Version:  4.0                                   |
|   \\  /    A nd           | Web:      www.OpenFOAM.org                      |
|    \\/     M anipulation  |                                                 |
\*---------------------------------------------------------------------------*/
FoamFile
{
    version     2.0;
    format      ascii;
    class       volScalarField;
    location    "31";
    object      p;
}
// * * * * * * * * * * * * * * * * * * * * * * * * * * * * * * * * * * * * * //

dimensions      [0 2 -2 0 0 0 0];

internalField   nonuniform List<scalar> 
918
(
0.460537
1.10815
0.0127332
0.459689
-0.0243107
1.07578
-0.599613
0.630823
0.440365
-0.178481
-0.120863
0.433919
0.93652
0.701671
-1.21917
-0.0182487
0.583247
-0.476404
0.4397
-0.227803
0.666754
0.446848
0.44988
0.440282
0.501769
0.686878
0.816812
-0.0666494
0.00023139
-0.0632184
-0.099923
-0.166369
-0.175042
0.959159
1.00975
1.03231
0.409216
0.246233
-0.443767
-0.527467
-0.519369
-0.647821
0.624605
0.626351
-0.268676
0.631978
0.642738
0.428026
0.439704
0.440645
0.44176
0.440698
0.442133
0.324681
-0.189249
-0.217229
-0.156224
-0.147419
-0.00485061
-0.118866
-0.124035
-0.125017
-0.14201
0.360479
0.430356
0.427648
0.4385
0.445776
1.0469
1.01794
1.04354
0.960464
0.97533
0.914238
0.886083
0.723118
0.74418
0.686328
0.674438
-1.6425
-2.60228
-0.632626
-0.380331
-0.0374917
0.0302459
-0.0110691
0.573507
0.573823
0.581899
0.597069
0.986836
-0.46903
-0.614463
0.439529
0.438493
0.446607
0.44696
0.444121
0.442202
-0.245041
-0.228269
-0.135055
-0.227731
-0.196663
0.653856
0.652967
0.441968
0.438568
0.45236
0.47034
0.465266
0.196643
0.504479
0.517731
0.502996
0.673142
0.669295
0.677233
0.791387
0.753826
0.854285
0.877807
-0.0392648
-0.0283677
-0.0181872
-0.109385
-0.0855681
0.405164
0.397191
0.423605
0.412572
0.414939
0.162412
0.0281972
0.340896
0.368816
-0.354243
-0.42933
-0.525787
-0.551711
-0.667082
0.512972
0.611347
0.612275
-0.27913
-0.210518
-0.346727
-0.125151
-0.19309
0.418398
0.425354
0.419732
0.435339
0.430082
0.431656
0.443986
0.441072
0.442586
0.385034
0.486015
0.254983
0.216703
-0.337438
-0.230881
-0.336616
-0.13731
-0.132115
-0.00159162
0.0214766
-0.0113721
-0.0178816
-0.129438
-0.124563
-0.128057
-0.162254
-0.168955
0.355003
0.345263
0.373599
0.380432
0.421637
0.422437
0.425114
0.423819
0.836434
0.859037
0.867287
0.840905
-3.61984
-6.67731
-0.0528605
0.0877964
-0.0834795
-0.0847441
-0.0440171
-0.0752624
-0.0308017
-0.0146682
-0.0117593
-0.0232791
0.00810356
0.00167569
0.557705
0.559484
0.89311
0.881898
0.858226
0.803749
0.427666
0.429784
0.435312
0.430802
-0.197958
-0.215432
-0.205733
0.640249
0.648205
0.647405
0.160627
0.0781308
0.245777
0.273074
0.541615
0.525798
0.540766
0.56504
0.59937
0.884338
0.90213
0.902428
0.910387
0.955563
0.968531
0.934171
0.385826
0.395089
0.390804
0.426833
0.424509
0.425433
0.420849
0.422391
0.419605
-0.142554
-0.503875
0.443048
0.455533
0.424349
0.4382
0.581748
0.654328
0.594389
0.602688
0.605221
-0.0574556
-0.119681
0.17063
0.138363
0.298286
0.332888
0.311171
0.807442
0.769262
0.819131
0.792503
0.752808
0.778997
-0.543494
-1.78606
-1.04426
0.444969
0.255358
0.343416
-0.0289789
-0.0293433
-0.0178643
0.86282
0.956546
0.534758
0.717596
0.768267
0.639017
0.671148
0.726855
0.649537
0.68521
0.721073
0.703776
0.475665
0.457757
0.4471
0.725488
0.769663
0.0576042
0.00947403
-0.0468707
0.0367378
0.0900868
0.0667337
0.916255
0.821845
0.892661
0.438162
0.438762
-0.130235
-0.166924
0.442895
0.443056
-0.124785
-0.204456
0.328172
-0.917303
0.0363629
0.43102
0.421494
0.43831
-0.177796
0.286443
-0.114883
-0.00257281
-0.0480037
0.431268
0.370462
0.332918
-0.210075
-0.0761449
-0.24665
-0.30275
0.435674
0.433829
0.437818
0.438913
0.439532
-0.238176
-0.214331
-0.159974
-0.306155
-0.240023
-0.242884
0.403318
0.419995
-0.255656
0.437942
0.440149
0.439956
0.432802
0.438612
0.43658
-0.106054
-0.167173
-0.122616
0.152407
0.26772
0.574999
0.677645
0.543233
0.311705
0.0636938
0.473924
0.540064
0.443063
0.600312
0.601915
0.623754
0.103818
-0.054414
0.107689
0.0492885
0.429201
0.427563
0.419863
0.416862
0.433279
0.431431
0.435845
0.432755
0.435655
0.437144
-0.124545
-0.140397
-0.170867
-0.233812
0.246098
0.513642
0.173612
0.217233
0.0705274
-0.109321
-0.115245
-0.116369
-0.123614
-0.0681393
-0.0721143
-0.0131055
0.000777211
-0.0215649
-0.0413174
-0.0711694
-0.0816196
-0.0931274
0.425021
0.42384
0.429899
0.437347
0.379613
0.383443
0.349884
0.369724
0.355175
0.298395
0.332281
0.307104
-0.123325
-0.212417
-0.114539
-0.101766
-0.0427234
-0.294735
-0.338455
-0.351122
-0.262867
-0.306857
-0.230937
-0.228881
-0.264141
-0.380077
0.88727
0.825762
0.0105696
0.424727
0.431239
0.427901
0.432846
0.435869
0.436783
0.434541
0.43106
0.420586
0.422455
0.418716
0.419132
-0.18933
-0.335053
-0.162221
-0.223456
0.0351904
0.537161
0.280668
0.211421
0.211271
0.435152
0.844388
0.615724
0.609958
0.649019
-0.45261
-0.0698118
-0.388155
0.202838
0.0239918
0.572747
0.624229
0.647742
0.592542
0.544104
-0.344948
0.440859
-0.139417
-0.0966802
0.10156
-0.00388093
0.624043
0.586026
0.592227
0.610332
0.630622
0.589262
0.569074
0.565433
0.60737
0.613885
0.406076
0.187846
0.130979
0.100686
0.572322
0.446882
0.501751
0.417312
0.423952
0.426819
0.425322
0.408086
0.415311
0.411017
0.416696
0.419707
0.429217
0.429759
0.42485
0.427125
-0.12276
-0.130635
-0.101446
-0.224658
-0.214212
-0.278496
-0.14675
-0.0284406
-0.055299
0.137382
0.216772
-0.0553392
-0.153536
-0.124864
-0.108965
0.0724706
0.1312
-0.00276098
0.0876981
0.0758519
0.0589399
0.173116
0.173105
-0.100302
-0.101385
-0.11195
-0.110799
-0.0375525
0.0239598
0.045858
-0.100525
-0.0720212
-0.117834
-0.145033
-0.101954
-0.104092
-0.0967699
-0.0620627
-0.243031
-0.146708
-0.112765
-0.106054
-0.065457
-0.0763616
0.419232
0.420894
0.420791
0.428018
0.443251
0.457939
0.420554
0.401721
0.392655
0.395335
0.369661
0.379824
0.376056
0.387674
0.408159
0.416073
0.414953
0.417494
0.400974
0.40264
0.390302
0.393068
0.371647
0.35313
0.341456
-0.225145
-0.222114
-0.22701
-0.149438
-0.151266
-0.141205
-0.0513941
-0.0656279
-0.066217
-0.0469087
-0.0415924
-0.321441
-0.298768
-0.172365
-0.0943414
-0.278388
-0.313018
-0.387114
0.792472
0.892945
0.719604
0.492984
0.498556
0.739518
0.825701
0.469994
0.629916
0.666045
0.492359
0.745944
0.429743
0.429224
0.426834
0.426363
0.427685
-0.100889
0.00438337
0.00616774
0.0677458
0.181765
0.305253
0.20662
0.0719706
0.208442
0.205732
0.530972
0.549397
0.493674
0.519089
0.517507
0.345294
0.421454
0.477434
0.432712
0.47489
0.49447
0.458887
0.485798
0.436089
0.391322
0.393046
0.337869
0.351771
0.331822
0.315144
0.419422
0.396652
0.40732
0.397468
0.418695
0.443986
0.437178
0.465392
0.476931
0.403682
0.364733
0.372122
0.402687
0.363267
0.376386
0.390708
0.130441
0.0610528
0.0977795
-0.194865
-0.109619
-0.185781
-0.217346
-0.0999119
0.200146
-0.545187
-0.603859
-1.16123
0.385315
0.907389
0.580344
0.522799
0.626651
0.601304
0.601358
0.634402
0.63815
0.562143
0.579373
0.586779
0.533221
0.556779
0.585379
0.582459
0.427369
0.287402
0.276937
0.24313
0.124359
0.160104
0.362558
0.276237
0.205255
0.222016
0.382645
0.278923
0.341784
0.370096
0.290818
0.264175
0.457172
0.529088
0.519108
0.49306
0.411544
0.421618
0.451926
0.486028
0.511363
0.548084
0.416451
0.422257
0.423575
0.421165
0.41822
0.421005
0.421062
0.423731
0.424559
0.427641
0.4266
-0.121632
-0.114668
-0.120328
-0.12961
-0.105634
-0.110587
-0.0561105
-0.0665461
-0.0870462
-0.0790234
-0.107845
-0.106573
-0.101284
-0.0962446
0.0167952
0.0194785
0.00802722
-0.0291705
0.139447
0.281187
0.339732
0.220283
0.129034
0.157475
0.173998
-0.0927034
-0.0513235
-0.0673452
-0.0335256
-0.0416737
-0.116108
-0.134009
-0.142437
-0.0895163
-0.0955155
-0.171575
-0.223173
-0.200751
-0.186378
-0.152167
-0.194721
0.404351
0.398094
0.398101
0.392915
0.392094
0.40445
0.408707
0.41104
0.416274
0.417806
0.408859
0.413784
0.417166
-0.170286
-0.260525
-0.242802
-0.190505
-0.21058
-0.276285
-0.230176
0.0200344
-0.0531042
-0.05299
-0.092249
-0.218062
-0.161978
0.391694
0.391362
0.415316
0.614031
0.462607
0.389608
0.491444
0.588123
0.162511
0.359792
0.191965
0.773585
0.666941
0.808996
0.420136
0.134507
0.292727
0.35088
0.141819
0.218996
0.221622
0.123891
0.152812
0.17419
0.27577
0.172999
0.155393
-0.0951287
0.0969391
0.218334
0.203445
0.331051
0.401063
0.146975
0.0786399
0.0455733
0.521447
0.542413
0.565901
0.531038
0.557471
0.478656
0.469268
0.488702
0.497663
0.490681
-0.885938
-0.5974
-1.511
-0.803445
-0.362115
0.416761
0.381831
0.655724
0.545918
0.607143
0.594231
0.565885
0.529735
0.53946
0.572214
0.279309
0.382256
0.359315
0.363578
0.259516
0.205205
0.498734
0.490112
0.530899
0.553485
0.519286
0.555318
0.414242
0.41394
0.413316
0.410128
0.40879
0.410687
-0.0183629
-0.0498397
-0.0097149
-0.0316877
-0.0570626
-0.0703673
-0.119319
-0.135315
-0.164132
-0.170325
-0.156052
-0.11609
0.0507933
-0.00832639
-0.0753191
-0.0496464
-0.105419
-0.172646
-0.191964
-0.0912661
-0.00308105
0.000948212
0.299785
0.538407
0.360977
0.529119
0.396491
0.427885
0.407664
0.399643
0.432214
0.299801
0.371149
0.178975
-0.356545
-0.236888
0.63834
0.703017
0.481994
0.350791
0.0591006
0.188578
0.456177
0.384958
0.428221
0.498784
0.491074
-0.0920965
-0.0615602
0.268979
0.471298
0.141614
0.0741149
0.0911342
0.252222
0.206144
)
;

boundaryField
{
    wall-4
    {
        type            zeroGradient;
    }
    velocity-inlet-5
    {
        type            zeroGradient;
    }
    velocity-inlet-6
    {
        type            zeroGradient;
    }
    pressure-outlet-7
    {
        type            fixedValue;
        value           uniform 0;
    }
    wall-8
    {
        type            zeroGradient;
    }
    frontAndBackPlanes
    {
        type            empty;
    }
}


// ************************************************************************* //
