/*--------------------------------*- C++ -*----------------------------------*\
| =========                 |                                                 |
| \\      /  F ield         | OpenFOAM: The Open Source CFD Toolbox           |
|  \\    /   O peration     | Version:  4.0                                   |
|   \\  /    A nd           | Web:      www.OpenFOAM.org                      |
|    \\/     M anipulation  |                                                 |
\*---------------------------------------------------------------------------*/
FoamFile
{
    version     2.0;
    format      ascii;
    class       surfaceScalarField;
    location    "31";
    object      phi;
}
// * * * * * * * * * * * * * * * * * * * * * * * * * * * * * * * * * * * * * //

dimensions      [0 3 -1 0 0 0 0];

internalField   nonuniform List<scalar> 
1300
(
3.75095
5.62643
-4.30096
3.75095
-4.78776
5.62643
-4.4816
4.4816
-1.04906
1.04906
1.8765
1.87445
-3.09495
3.09495
-2.51113
2.51113
-2.55486
2.55486
-5.2464
5.2464
-5.06866
5.06866
4.66096
-4.66096
-5.00505
5.00505
-1.43193
1.43193
-3.94559
3.94559
3.16872
-3.16872
-2.32716
2.32716
-0.289488
0.289488
-0.553184
4.30414
3.19777
3.19777
-2.07873
2.07873
-4.86272
4.86272
6.21757
-6.21757
5.95329
-5.95329
-1.65233
-3.25643
1.30078
-10.1504
-3.48697
-3.48697
-8.44022
8.44022
-2.81379
2.81264
2.94336
-2.94336
-1.86574
1.86574
-4.40407
-0.0775262
-4.40407
4.48728
-0.00568613
4.48728
-1.15528
0.106216
-1.15528
3.98583
-3.98583
0.894384
0.15468
0.894384
3.06482
-3.06482
-1.87714
3.75365
1.87381
-1.87177
6.17591
-1.87919
3.75363
-5.88569
5.88569
-3.2988
0.203847
-3.2988
2.8941
0.200858
2.8941
-6.68323
6.68323
-2.51932
0.00819067
-2.51932
2.39365
0.117484
2.39365
2.86098
-2.86098
-2.65518
0.100316
-2.65518
2.44362
0.111244
2.44362
0.353685
5.27275
-5.98011
8.79276
-5.27275
0.0263425
5.20826
0.0381408
5.20826
-5.10586
0.0372034
-5.10586
5.01216
0.0565027
5.01216
4.7382
-0.0772398
4.7382
-4.78494
0.12398
-4.78494
-2.93579
-5.33417
-5.65945
0.654408
-5.65945
-1.43279
0.000865194
-1.43279
1.39093
0.041
1.39093
-3.55048
3.55048
-4.29324
0.347651
-4.29324
3.12264
0.0460819
3.12264
1.86905
1.88191
5.62
-5.62
2.45128
-2.25262
-0.0745403
-2.25262
-2.46279
-3.4905
2.46279
-0.13563
-0.556874
0.267385
-0.556874
3.15999
0.0377807
3.15999
2.29538
0.14824
-2.29538
0.21665
3.19514
-3.19514
1.45992
0.61881
1.45992
-5.56793
5.56793
4.95326
0.0589005
-4.95326
0.0905395
6.15665
0.0609236
6.15665
-6.19993
-0.0176407
-6.19993
1.61133
-4.86776
-4.02302
4.15198
0.853064
-4.15198
0.665008
2.91309
0.0302715
2.91309
-2.91975
2.91975
-2.98338
0.0400166
-2.98338
-2.24912
0.383382
-2.24912
1.58201
0.283736
1.58201
-4.28423
-0.119841
-4.28423
-4.41277
0.119533
4.41277
0.0745132
1.13116
-1.13116
-1.26755
0.112269
-1.26755
-4.1342
-0.150025
4.1342
-0.148371
-3.83285
-0.152988
-3.83285
-3.02364
0.0402596
3.02364
0.0411802
3.11301
0.0469814
-3.11301
0.0481857
-1.87091
3.75282
-1.88004
3.75385
-5.51195
-0.373737
-5.51195
6.1981
-0.312412
6.1981
3.63798
0.307601
-3.63798
0.339184
2.71243
0.181667
2.71243
-6.66516
-0.0180702
-6.66516
6.62231
0.0609165
6.62231
2.59774
0.114694
-2.59774
0.078415
2.31477
0.0788772
2.31477
2.87483
-0.0138523
2.87483
-2.86262
0.00163708
-2.86262
2.80005
-2.80005
2.73147
0.0685807
-2.73147
0.0762891
-11.1325
11.1149
-0.0350011
-11.0975
5.17326
5.17326
4.15491
0.583292
4.15491
-5.00099
0.216046
-5.00099
2.00462
-6.02764
5.0043
-7.94008
5.17459
-15.325
3.57843
-8.9126
6.38948
-6.38948
6.13367
0.255807
-6.13367
0.474217
-1.45534
0.0225515
-1.45534
-2.95028
-0.600199
-2.95028
4.20391
-0.653435
4.20391
-3.02829
3.02829
-3.077
0.048712
3.077
0.0456414
2.20568
0.10909
-2.20568
-0.0469383
0.729783
0.1646
-0.729783
0.172909
3.39685
-0.20171
3.39685
-3.00737
-0.187773
-3.00737
-1.46316
0.00781379
1.46316
-0.00323744
-5.81567
0.247742
-5.81567
-11.1909
0.0933633
-11.1527
-6.10657
-6.10657
2.33365
11.1264
-2.88584
0.0232227
2.88584
0.0272537
2.97495
0.0533346
-2.97495
0.0552033
-2.86172
0.0616706
2.86172
0.0580296
-2.63306
0.383937
-2.63306
-1.17698
1.17698
-1.35233
0.175355
1.35233
0.229672
1.36064
-0.229476
1.36064
1.33942
0.0515031
-1.33942
0.0718738
-3.71033
-0.122515
-3.71033
6.42717
-0.229061
6.42717
-2.91607
-0.0912981
2.91607
-0.0412355
-0.0334387
11.1483
-5.13982
0.0339577
5.13982
-11.2092
11.2432
-3.26129
0.628225
3.26129
0.893624
5.29075
0.277181
-5.29075
0.289761
6.54558
0.0767302
-6.54558
0.156106
-2.46829
-0.481986
-2.46829
-4.94733
-0.564628
4.94733
-0.743414
-11.4727
-0.205143
11.6779
-11.4162
6.02082
0.135834
-6.02082
11.379
-1.08563
-0.045533
1.08563
0.0913526
1.64966
-0.289022
1.64966
3.59119
-0.194339
-3.59119
-0.119143
-6.57963
-0.0855318
6.57963
-0.152464
-2.03316
-0.435134
2.03316
-0.383502
-4.2669
4.30468
1.909
-1.14803
-3.71973
-4.63853
1.8517
1.90112
4.30298
-10.0341
-5.29092
-9.36908
7.26355
-6.97379
-9.27806
9.20082
7.57237
-7.72536
-5.78736
5.833
6.4819
-6.44072
1.87879
1.87486
7.851
-7.64716
-15.6766
15.3029
7.37063
-7.36244
15.7763
-15.7944
-17.7991
17.8759
-5.73252
5.83284
-6.72171
6.72335
-6.92201
6.88078
-1.90262
-6.03747
13.3145
-12.66
6.86637
-6.94091
-8.47363
8.82129
3.38191
0.922774
3.42889
-1.88238
3.76117
-1.87125
3.78026
4.39823
-6.30085
1.6294
-5.34913
3.25
3.61637
-3.11437
-1.52416
-5.91708
5.94735
-5.82444
5.88247
8.9517
-9.02922
-1.88514
3.76
-1.86871
3.76983
-3.42658
-2.36079
3.38049
0.922486
7.53007
5.78438
-8.38313
-0.985944
-7.85601
7.66167
-8.11402
7.92625
-0.438221
5.81668
-5.37846
4.4245
-1.5519
7.36858
5.71165
5.9277
5.86575
-5.58857
1.10804
-6.4865
-6.39597
-2.54785
2.66012
2.49181
-2.33713
5.96312
1.60925
5.81475
-5.57836
-2.14699
-5.70088
3.82201
2.01099
3.87072
4.07593
2.40597
4.11619
3.03078
-3.03535
0.00457098
-3.05617
6.08695
0.724649
-5.41696
-4.49447
4.89452
2.95648
5.09538
-5.46251
-2.18464
-5.12333
-9.53874
-6.1379
-10.1034
10.1226
5.18029
9.8102
-11.9765
11.8241
4.49411
2.87653
4.61159
-4.87573
-2.48671
-4.79732
11.599
-2.52321
-9.0758
-10.3184
-7.48069
10.2575
5.51878
10.9047
6.97111
11.0609
4.4043
7.1947
-9.92308
2.4424
-3.87401
-1.85851
-3.79772
3.70675
2.12609
3.81799
-4.21134
-2.51037
-4.18811
-4.28247
-2.63954
4.29632
2.42702
-4.38551
-3.72851
4.47681
2.40396
5.21992
-10.5108
3.69268
-9.73014
-9.29779
-3.36226
-8.82357
5.17895
2.2484
-7.42735
-1.1219
7.99519
-4.37882
6.47103
-4.08257
-2.85835
-4.1295
-6.74853
-1.7251
-6.629
-8.85125
8.36927
-9.1856
8.53216
12.6969
-5.72596
-6.97092
-3.96821
-2.47251
3.92003
-0.491139
-3.71111
3.71568
0.0500633
3.83032
4.75309
4.26195
-3.88856
-1.93588
-3.83336
3.83437
2.0481
3.89604
6.73651
2.21518
6.73083
-6.46938
-2.55985
-6.58922
9.04721
-8.66383
2.916
-2.90819
5.28509
2.64116
-5.08338
-2.77263
6.18798
-3.12609
-3.06189
-12.2098
10.576
1.63382
-4.84122
-0.416727
-0.127238
-5.49639
-3.78167
5.37241
0.555288
11.1313
7.34961
-5.51282
5.76057
6.16507
6.22397
-0.171998
5.78024
-5.15202
5.33
-2.40066
-2.92934
5.3259
-5.47593
-1.26332
-5.26997
4.00665
0.338821
1.7058
-1.43841
-2.01843
-0.529423
-1.94655
1.4785
1.0133
1.6431
0.967139
1.69298
-2.94702
0.537933
2.40909
-1.97988
-1.7992
-3.69877
-1.03327
4.73204
5.62681
2.03486
-5.50766
-0.193214
2.71072
-2.66972
-0.797345
-2.90142
2.11175
-2.9091
-3.61352
-1.8851
5.49862
-3.37148
-0.461879
3.31814
0.552579
-3.82468
-2.0924
3.78467
0.33152
-3.12446
6.18831
-3.06385
-5.06034
2.52926
3.55769
4.54025
-4.78919
2.44564
2.34355
-1.2315
4.18966
0.905725
4.37132
-6.66373
4.47909
5.72003
3.10126
-6.02763
0.904298
-5.75944
8.44565
-7.24556
-1.20009
4.11391
4.33174
7.20024
5.49665
-5.76572
12.966
-1.1565
-6.08906
6.91593
-3.81467
4.73313
-8.5478
-10.2298
4.14071
-9.25579
10.9842
-1.72839
-3.62071
-8.35584
12.8765
-1.22531
-11.6512
8.5849
-4.21875
-4.35429
8.57304
-6.74196
6.841
-1.98957
-4.85143
-10.1046
-5.68977
10.1901
1.63395
-10.086
12.5283
-2.89125
3.56028
1.05131
3.63915
3.25025
-5.3977
2.14745
3.49171
-5.48128
2.08724
-7.48494
-7.44927
13.1941
-5.74487
-10.8115
-9.86067
-0.950856
2.52516
10.0032
-9.49627
7.36758
2.12869
3.31115
0.584894
-3.37973
-0.417993
0.264463
4.55067
-4.81513
4.08245
4.23069
3.39339
1.15728
3.83849
2.10886
-3.86575
-0.322368
-4.15045
1.51091
-1.72343
-3.65041
5.16133
-4.07014
0.419725
-2.72986
-3.51218
6.24203
-4.58836
3.03873
3.14958
5.08683
-4.90911
1.39693
-2.402
-2.5071
2.67321
-4.39664
1.93775
3.22358
4.34171
0.613202
7.17634
6.01781
-9.42474
-0.305403
11.8022
-10.8162
2.60655
8.4543
-9.97413
0.113459
-8.71011
1.19164
-5.57046
-6.23572
5.04491
-6.77001
-3.50289
6.11643
0.6144
-6.19094
-0.438058
-6.02611
-2.82514
-6.46125
-3.05699
-6.12861
-8.82271
-1.64046
-7.18225
6.72881
-6.66737
-3.436
7.41078
1.12138
-7.39145
7.34592
-7.46987
7.18085
0.0948322
3.62085
4.35679
1.88428
-2.38935
4.27363
-5.03043
7.24561
-8.4928
3.46237
3.99769
-6.55754
-4.4951
5.03725
4.00996
5.32099
8.9305
-10.4291
1.49857
-10.7834
12.1007
-1.31727
-16.5349
5.75145
-7.60436
2.66052
0.255479
2.68307
0.667778
2.42203
-3.08981
-2.24041
-2.24365
-2.33742
-3.40719
5.74461
1.13988
-3.42245
2.28257
-3.48312
4.62299
-0.0643669
-3.35809
5.28073
-2.85871
5.53621
-3.54748
1.98873
3.32927
5.6955
-2.36623
4.3405
-1.69934
1.83932
-4.20555
-1.56787
-2.97179
5.09788
-3.27024
3.68997
-0.282747
3.97271
-4.0954
0.969305
-0.702005
3.52869
3.74534
4.28585
-3.12857
2.98158
-4.68092
-1.22397
-4.06772
-0.84414
-0.28705
-3.7897
4.07675
6.05073
-6.33778
-5.22968
9.54682
-4.31714
7.72933
-5.39315
-2.33618
-4.2497
-4.41413
3.86577
1.91447
9.6438
0.234955
-5.62811
-4.91706
-4.02344
3.2039
2.1261
-1.91733
3.55114
2.04457
-0.338768
0.576223
1.06688
1.8652
-1.28897
0.198623
1.66657
-1.23979
1.99018
0.720541
-2.04168
0.0951313
-1.37872
3.49047
1.03037
-2.04368
0.754703
1.07419
-3.47485
4.87094
-2.48846
-2.38248
5.94513
1.138
-3.62646
4.13197
-3.79315
2.32948
-3.36276
-1.29697
-5.09012
-3.48087
-2.53705
4.81962
-3.20756
5.24242
1.2061
-5.04921
6.25531
-3.55172
1.66662
-3.07422
3.79476
-1.07127
-2.00295
2.78809
2.71053
-2.9262
0.0247783
-0.138114
2.32631
-2.46442
-0.582787
-2.56267
-4.57176
4.90328
-2.10784
4.55347
2.16579
-1.91417
6.46764
1.81187
-3.72604
-3.24847
-3.71035
-1.38249
3.15777
-0.552071
-4.24525
-5.4035
4.13055
0.240771
-6.85176
7.65104
-0.79928
-3.89528
-0.583814
4.69773
-5.96768
0.486397
-3.88044
3.7706
4.67633
4.9171
-11.4621
-0.189123
-6.28178
1.17227
-7.45405
5.50401
-3.64496
7.78567
-10.4424
7.00638
-9.321
6.58558
-0.868475
6.25984
-4.11239
2.81596
-8.50574
-6.87179
5.53998
-2.66345
6.59129
-3.01834
9.60963
-5.90959
4.95176
4.65787
-0.721756
-3.40775
-5.29225
4.5705
-0.340497
3.29866
4.97088
-2.86202
4.64851
2.2585
-4.6605
-2.13814
-6.50224
1.84174
-3.35266
-1.9143
3.75604
3.17253
3.75742
1.24893
-3.33943
7.92537
-8.87623
-2.1805
-4.05522
5.1588
-0.588301
3.27001
-7.32522
-2.30045
4.91076
-0.856492
-4.05426
0.815203
-4.31809
1.6498
-5.96789
5.12022
-5.55828
2.18231
-9.78666
-5.20914
-5.11779
-2.23821
-5.23166
-7.63623
5.39802
-1.88478
5.46114
-8.61325
7.75676
-3.48743
8.88545
-5.44142
-1.01983
5.82492
1.35593
10.2414
0.190839
-4.68594
-1.91219
3.97648
-2.06429
1.29171
-3.59886
0.377622
2.47641
3.46871
-6.48306
-0.0744819
-4.76042
-3.92995
7.9399
5.61687
11.6676
1.23853
9.1222
-1.1823
10.3607
4.13869
4.36836
-3.06346
4.56203
1.01329
4.47566
-0.843401
2.83213
1.83967
1.84054
0.829184
2.30675
1.43859
3.27605
0.186247
-2.0574
4.63309
-8.65653
-0.995015
-8.07323
1.12759
5.82631
-4.69873
3.10267
-0.976566
1.03838
0.135523
-1.65387
1.51835
-2.79382
-1.99264
-0.326062
-1.6046
2.3593
1.88587
-2.03324
-0.760584
0.320907
-3.80178
3.04185
-3.01707
-0.306539
5.94877
-2.74481
0.28039
-1.07819
-2.28228
-2.8117
2.71657
6.17579
0.291854
3.11194
5.19514
3.10274
0.240719
3.91835
-5.64674
-3.56659
-5.83586
-0.331854
4.36587
1.57363
8.42956
6.23151
5.64321
-1.68202
-10.5582
6.56942
-2.00739
5.25215
-1.19789
-4.77
4.94382
2.30179
-5.55822
-5.51977e-05
-4.77006
-6.77745
-0.566833
8.32359
-9.67455
8.65472
5.82958
1.35267
-4.40065
-0.717139
4.2253
0.143067
10.5038
-1.17992
-6.7438
7.92372
-4.64639
3.65138
0.794233
2.75691
2.31258
1.33601
-5.40779
-10.1065
-1.90268
-1.57217
-4.28515
0.446887
-2.33275
6.27535
-2.62397
3.93917
5.29976
6.33814
-2.14891
-4.18887
6.46605
-2.52688
3.81125
)
;

boundaryField
{
    wall-4
    {
        type            calculated;
        value           uniform 0;
    }
    velocity-inlet-5
    {
        type            calculated;
        value           uniform -3.75095;
    }
    velocity-inlet-6
    {
        type            calculated;
        value           uniform -5.62643;
    }
    pressure-outlet-7
    {
        type            calculated;
        value           nonuniform List<scalar> 8(4.30096 4.78776 4.90876 8.84963 8.26996 5.63434 7.00892 8.75302);
    }
    wall-8
    {
        type            calculated;
        value           uniform 0;
    }
    frontAndBackPlanes
    {
        type            empty;
        value           nonuniform 0();
    }
}


// ************************************************************************* //
