/*--------------------------------*- C++ -*----------------------------------*\
| =========                 |                                                 |
| \\      /  F ield         | OpenFOAM: The Open Source CFD Toolbox           |
|  \\    /   O peration     | Version:  4.0                                   |
|   \\  /    A nd           | Web:      www.OpenFOAM.org                      |
|    \\/     M anipulation  |                                                 |
\*---------------------------------------------------------------------------*/
FoamFile
{
    version     2.0;
    format      ascii;
    class       volVectorField;
    location    "31";
    object      U;
}
// * * * * * * * * * * * * * * * * * * * * * * * * * * * * * * * * * * * * * //

dimensions      [0 1 -1 0 0 0 0];

internalField   nonuniform List<vector> 
918
(
(0.985096 -0.00054326 0)
(0.00478376 2.96626 0)
(-0.0609684 1.1271 0)
(0.979824 0.0024133 0)
(-0.0262199 1.24467 5.59823e-20)
(-0.00704954 2.94891 -9.96664e-19)
(0.832032 1.19083 2.17089e-19)
(0.345387 0.166119 -5.61198e-21)
(0.999904 -0.000310995 0)
(0.0529236 0.888666 0)
(0.0234179 0.715497 0)
(0.729905 -0.00815458 0)
(0.0115274 2.93014 0)
(0.00272721 2.79519 0)
(-0.0195572 3.15358 3.84063e-19)
(-0.122122 1.57664 -2.15534e-21)
(0.429433 0.0584707 3.64056e-19)
(0.170243 1.22636 1.66835e-19)
(0.961965 0.00390413 0)
(-0.0305898 0.660194 0)
(0.0857246 0.194141 -2.68419e-19)
(1.00218 -0.00520681 0)
(1.00076 -0.0101635 0)
(0.975955 -0.0065261 0)
(0.584588 -0.0349546 0)
(0.0185536 2.63592 0)
(-0.0149191 2.91022 3.43956e-19)
(-0.116961 0.990017 0)
(-0.222674 1.29213 0)
(-0.088174 1.06013 0)
(-0.119264 2.3923 0)
(0.0418785 1.3914 -4.33337e-20)
(-0.0274779 1.01061 0)
(-0.0204472 2.98751 -3.55891e-23)
(-0.0169834 3.00539 7.91703e-19)
(0.00201357 3.00015 0)
(0.870277 -0.0087878 0)
(0.437663 0.974001 5.09178e-20)
(0.806847 1.20733 -2.59529e-19)
(0.956691 1.04422 2.68676e-19)
(0.676678 1.30451 -5.00979e-20)
(0.676147 1.29257 2.88134e-19)
(0.387399 0.251981 5.47191e-21)
(0.363798 0.140152 0)
(1.14607 0.580156 0)
(0.353979 0.249665 2.50767e-20)
(0.301675 0.16919 -2.60384e-20)
(0.919476 -0.00731467 0)
(1.00029 0.000136932 0)
(0.999917 0.00033665 0)
(1.00351 -0.00768829 0)
(1.00095 -0.000949488 0)
(1.00019 1.95471e-05 0)
(0.0613719 1.76785 -2.51302e-19)
(0.0261601 1.04516 0)
(0.0665429 0.950284 0)
(0.0261649 0.984065 0)
(0.0222915 0.820592 0)
(0.0285134 1.99935 0)
(-0.0208729 0.836716 0)
(0.0121121 0.715739 0)
(-0.000215059 0.807454 0)
(-0.000768326 0.676777 0)
(0.835223 -0.0141505 0)
(0.851842 0.026496 0)
(0.765549 0.000305581 0)
(0.826519 0.035484 0)
(0.696461 -0.0120832 0)
(0.015332 3.00066 3.60797e-19)
(0.0116937 3.00839 0)
(0.00650175 3.00255 0)
(0.0141521 2.99722 4.0326e-24)
(0.00835939 2.95851 -5.45313e-19)
(0.0152018 2.98187 0)
(0.0112496 2.90365 0)
(0.0251536 2.93025 7.71424e-25)
(0.00501157 2.82529 0)
(0.0318863 2.91606 0)
(-0.00508618 2.74513 0)
(0.304559 3.54748 0)
(-0.145847 3.62436 0)
(0.136096 3.24613 -3.54508e-19)
(-0.0103075 2.98558 0)
(-0.326114 2.20995 0)
(-0.123583 1.7565 2.12054e-21)
(-0.105574 1.76511 5.51118e-22)
(0.516539 0.151492 -1.25921e-19)
(0.42548 0.0407061 -1.21516e-19)
(0.502135 0.174241 -3.78736e-19)
(0.412524 0.083978 -2.51324e-19)
(0.18372 0.909664 0)
(0.24982 1.35613 -1.86153e-19)
(0.363835 1.31379 3.11452e-19)
(0.987347 0.00819845 0)
(0.941307 0.00544635 0)
(1.00031 0.000424542 0)
(1.00326 0.00948839 0)
(1.00288 0.00784967 -9.05931e-19)
(0.991778 0.00989134 6.917e-19)
(-0.0119619 0.767724 0)
(-0.0100363 0.620615 0)
(-0.111912 0.966086 0)
(-0.0259017 0.789233 0)
(-0.0108246 0.704774 0)
(0.139374 0.204604 8.32227e-20)
(0.192055 0.185639 0)
(0.993347 -0.00827395 0)
(0.954437 -0.00616102 0)
(0.780295 0.0412136 0)
(0.726338 0.0495947 0)
(0.654504 -0.0263704 0)
(0.947492 -0.00352985 0)
(0.650073 0.0671042 0)
(0.481077 -0.0116096 5.15344e-19)
(-0.036101 2.86436 2.32225e-19)
(0.0421567 2.90914 0)
(0.0555479 2.88441 0)
(-0.00442163 2.69815 0)
(-0.0135563 2.98504 3.22196e-19)
(-0.0181928 2.89515 0)
(-0.0159266 2.98802 -1.00793e-18)
(-0.0131211 2.92539 3.47224e-19)
(-0.303664 1.29657 0)
(-0.321615 1.49813 0)
(-0.139991 1.55123 8.20789e-22)
(-0.0862857 1.36468 0)
(-0.121333 1.28085 0)
(0.937634 -0.00769822 0)
(0.856246 -0.00840303 0)
(0.862969 0.00633936 0)
(0.948873 -0.00791243 0)
(0.883459 -0.00732719 0)
(0.546459 1.16862 -6.64791e-20)
(0.596539 1.20738 0)
(0.405173 0.926823 1.08458e-20)
(0.34514 0.783383 0)
(0.920055 1.08089 -7.43984e-20)
(1.03129 0.886854 1.51827e-19)
(0.365313 1.39672 0)
(0.531399 1.36839 0)
(0.53291 1.32711 0)
(0.115217 0.200656 -1.02371e-19)
(0.426421 0.236662 0)
(0.395066 0.121947 7.09846e-20)
(1.0066 0.94005 0)
(1.07788 0.792406 0)
(1.10077 0.735071 -1.24416e-19)
(1.12454 0.634052 0)
(1.16727 0.415791 2.40311e-20)
(0.957474 -0.00857399 0)
(0.962214 -0.0102443 0)
(0.901845 -0.00737799 0)
(0.984311 -0.00920869 0)
(0.974753 -0.00933107 0)
(0.937386 -0.00604876 0)
(1.00018 0.00213944 0)
(1.00087 0.00142721 0)
(0.999868 0.000903194 0)
(0.0286945 2.04649 1.41262e-19)
(0.0995232 1.72024 0)
(0.0159198 2.15519 2.04846e-19)
(0.0430345 1.83246 -1.62134e-19)
(0.109064 1.22931 -1.37254e-19)
(0.0422709 1.10693 0)
(0.115142 1.09497 0)
(0.0280436 0.935619 0)
(0.0199227 0.759202 0)
(-0.012684 2.17503 1.06072e-23)
(0.0339283 1.98547 0)
(-0.0207943 2.14316 5.09975e-21)
(0.0344235 1.99258 -1.32447e-20)
(0.0238216 0.891172 0)
(0.00805064 0.851375 0)
(0.0138261 0.729487 0)
(-0.010139 0.783792 0)
(-0.0188494 0.647398 0)
(0.932801 0.00836292 0)
(0.839699 -0.0157621 0)
(0.924074 -0.00145443 0)
(0.837612 -0.0116118 0)
(0.811728 0.00278089 0)
(0.902739 0.0187162 0)
(0.880806 0.0222721 0)
(0.788179 0.00209691 0)
(0.00398756 3.06426 -3.1289e-21)
(0.0168208 3.05767 0)
(0.0152737 2.969 0)
(0.00884302 2.87625 0)
(0.963401 3.98471 0)
(1.30805 3.24796 4.6308e-19)
(0.0692033 3.07662 0)
(-0.0254918 2.90792 0)
(-0.384305 1.58461 0)
(-0.384422 2.12941 0)
(-0.375545 1.87123 0)
(-0.214032 2.43263 -3.54516e-20)
(-0.288471 2.37266 0)
(-0.235907 2.33067 0)
(-0.0109905 1.94915 -1.05291e-21)
(-0.0584605 2.01866 -6.04898e-21)
(-0.113837 1.91914 -7.36291e-22)
(-0.0590296 1.89448 0)
(0.544056 0.124887 1.87719e-19)
(0.440105 0.0173033 -1.84211e-19)
(0.270868 1.55132 0)
(0.239816 0.695736 -1.11291e-19)
(0.177605 1.64537 -3.68405e-19)
(0.198956 1.16968 3.69278e-19)
(0.901902 0.00592946 0)
(0.967432 0.0106342 0)
(0.974432 0.0106003 0)
(0.923312 0.00591153 0)
(0.017129 0.758625 0)
(-0.0100141 0.753039 0)
(-0.00987539 0.617678 0)
(0.301387 0.244615 2.30217e-19)
(0.247005 0.21997 -2.7318e-19)
(0.255142 0.181938 0)
(1.07462 0.086098 7.63471e-21)
(1.0532 0.0395165 0)
(0.989166 0.0393067 0)
(0.885197 -0.00639477 0)
(0.569931 0.0928718 0)
(0.59393 0.0691263 -8.27636e-19)
(0.457394 0.0017328 3.12652e-19)
(0.00913043 2.98124 2.56764e-19)
(-0.033101 2.86675 1.89091e-20)
(0.00198658 3.04963 -6.65984e-21)
(0.0207919 3.04321 2.46512e-19)
(-0.0153261 2.9963 1.14403e-20)
(-0.012816 2.9495 -4.62037e-23)
(-0.01756 3.01149 -2.11851e-19)
(0.0142394 3.02293 1.52459e-19)
(0.00672781 3.03674 -2.46212e-19)
(0.931579 -0.00307646 0)
(0.938024 -0.00346803 0)
(0.842483 -0.00756815 0)
(0.956586 0.0114255 0)
(0.943055 0.0127158 0)
(0.881428 0.00565897 0)
(0.918678 0.0151541 0)
(0.926755 0.0143497 0)
(0.838778 0.00405975 0)
(0.760861 1.43432 6.59913e-20)
(0.803696 1.52605 0)
(0.235467 0.382003 2.56857e-20)
(0.236716 0.701321 2.04077e-19)
(0.28937 0.767743 -1.20588e-19)
(0.30939 0.580847 2.31949e-19)
(0.31889 0.788967 5.41659e-19)
(0.123314 0.230589 1.30737e-19)
(0.474195 0.199005 2.66994e-19)
(0.447861 0.218667 6.86049e-20)
(0.407091 0.106783 1.33564e-19)
(1.15847 0.47193 4.38183e-20)
(1.16498 0.268766 4.3688e-20)
(0.00544687 2.19479 7.21814e-20)
(0.0471277 1.90278 0)
(0.955505 0.0277711 0)
(0.933705 0.0103053 0)
(0.854338 -0.0179216 0)
(0.0112524 3.07453 0)
(0.0206014 2.9439 4.39925e-19)
(0.0171841 2.95633 0)
(0.00654159 2.85064 -4.38503e-19)
(0.00553885 3.09096 1.03249e-19)
(0.00593716 3.08185 0)
(0.888899 1.83 -8.03601e-20)
(1.27305 2.38129 1.56379e-19)
(0.869148 1.93414 -5.14176e-19)
(0.0203869 2.98285 -2.15225e-19)
(0.0362899 3.00372 0)
(-0.0329677 2.8805 0)
(-0.0138903 2.11704 -4.20439e-23)
(-0.0324265 2.07741 1.55748e-20)
(0.0132104 1.97952 -6.94463e-23)
(0.278498 1.36885 3.62707e-19)
(0.192491 0.489279 -2.47168e-19)
(0.0519452 1.97202 2.71813e-19)
(0.155241 1.86491 -3.31373e-19)
(0.147174 1.44886 3.9452e-20)
(0.000888707 3.11905 -6.29968e-19)
(0.0138741 3.11838 7.10458e-19)
(-0.00941969 2.98108 2.90871e-19)
(-0.00433566 2.97805 -2.70369e-19)
(-0.0212705 2.88187 -2.96404e-19)
(0.00777569 3.09978 -7.66537e-19)
(0.00150304 3.10497 7.70884e-19)
(0.271124 0.715849 0)
(0.236407 0.708949 -4.20658e-19)
(0.132406 0.248134 1.87053e-19)
(0.334646 0.903034 3.87458e-19)
(0.173402 0.267683 -5.96002e-19)
(1.15805 0.177592 1.48734e-20)
(1.16635 0.318151 0)
(1.14278 0.127259 8.48505e-21)
(-0.00586452 2.19484 -2.27497e-22)
(-0.00309891 2.20151 0)
(0.0312496 1.95076 0)
(0.347599 1.26272 -1.30891e-19)
(0.364637 1.09567 -2.82647e-19)
(0.180003 0.349986 4.99408e-19)
(1.00554 -0.0111909 0)
(1.00751 -0.00745342 1.67931e-19)
(-0.289521 1.30319 0)
(-0.232841 1.09597 0)
(1.00198 0.00341116 7.85913e-22)
(1.00381 0.0100209 3.40243e-19)
(-0.221018 2.45782 4.64714e-20)
(-0.229099 2.47591 0)
(0.0357306 3.17983 1.39169e-19)
(0.387932 3.48354 0)
(1.14608 0.645741 -1.2324e-20)
(1.01324 0.0135335 -7.69696e-22)
(1.02106 -0.0108153 0)
(1.00175 0.000120081 2.66289e-23)
(0.0985215 1.34818 0)
(0.152121 2.57818 0)
(0.042465 1.28617 0)
(0.00601678 2.61987 -8.37561e-21)
(-0.028756 2.57457 -1.05629e-20)
(1.00562 0.0289196 1.02871e-21)
(1.06124 0.00196285 0)
(1.09023 0.0145156 0)
(-0.353987 2.12688 0)
(-0.183226 2.55675 0)
(-0.0300032 1.0703 0)
(0.2894 1.45619 -9.99289e-20)
(1.01123 -0.00993026 0)
(1.00939 -0.0153667 0)
(1.00242 0.000631662 2.13155e-19)
(1.00538 -0.00480495 -2.53205e-19)
(1.00119 -0.00108599 0)
(-0.354383 1.8385 0)
(-0.31134 1.34736 0)
(-0.359091 1.6166 0)
(-0.0347341 1.02813 0)
(-0.100836 0.993996 0)
(-0.0419207 0.913599 0)
(1.0339 -0.00750682 0)
(1.02125 0.0162002 -3.93808e-22)
(0.802885 1.24607 1.29201e-19)
(1.00223 0.000391863 -2.12698e-19)
(1.00401 0.00530969 2.53278e-19)
(1.00117 0.00211113 0)
(1.01346 0.0105508 2.10331e-19)
(1.00862 0.00867878 -2.55796e-19)
(1.00931 0.0156797 0)
(-0.2212 2.58258 0)
(-0.241543 2.54519 -7.19964e-20)
(-0.259345 2.5115 5.17685e-20)
(1.20883 0.251836 1.66438e-19)
(1.14508 0.0778787 0)
(0.0467359 3.07599 -3.41284e-19)
(0.0658388 2.85139 -2.49439e-20)
(0.144148 3.19434 5.31349e-19)
(0.140771 3.22387 -5.48665e-20)
(0.132954 3.23613 0)
(0.0203126 3.13765 8.67524e-20)
(0.0774583 3.16072 3.31643e-19)
(0.0692647 3.18635 -1.66057e-19)
(0.0243363 3.12901 0)
(0.668794 0.300865 0)
(0.575342 0.361211 0)
(1.09678 0.668296 1.76781e-20)
(1.1261 0.804518 3.68214e-22)
(1.1614 0.554051 0)
(1.20806 0.503764 0)
(1.0164 0.0136135 -3.96617e-19)
(1.01514 0.0148063 4.96731e-19)
(1.02497 -0.0102852 0)
(1.02295 -0.0125117 0)
(1.00638 0.0025558 0)
(1.01011 0.0035333 0)
(1.00456 0.00188416 0)
(1.00991 0.00592235 0)
(1.00813 0.00632735 0)
(1.00437 0.00440682 0)
(0.0895647 1.34239 0)
(0.0825658 1.30982 0)
(0.112045 1.37522 0)
(0.133703 1.39964 0)
(0.147515 2.60044 0)
(0.189534 2.65808 -1.56274e-19)
(0.0985338 2.65832 0)
(0.0902072 2.65781 5.88587e-20)
(0.044778 2.68087 -2.43614e-20)
(0.0567033 1.27335 0)
(0.0701545 1.18731 0)
(0.0208026 1.31474 0)
(0.0346955 1.25709 0)
(-0.0146025 1.98426 2.36308e-20)
(-0.0356417 2.60355 -3.04725e-20)
(-0.0120421 2.66313 -2.59462e-20)
(-0.0237445 2.67416 0)
(-0.0431432 2.60704 3.4352e-20)
(-0.0356733 2.60198 2.42825e-20)
(-0.012192 1.98514 -1.76281e-20)
(-0.0363034 2.4097 3.94305e-20)
(-0.0251888 2.42948 3.08443e-20)
(1.01444 0.0344033 3.96774e-19)
(1.00946 0.0181558 -4.93192e-19)
(1.00616 0.0418976 -4.00735e-19)
(0.987767 0.0233329 5.09714e-19)
(1.06214 0.00627479 0)
(1.04743 -0.00917838 0)
(1.08928 0.026484 0)
(1.07091 0.00916696 0)
(1.06846 -0.00134467 0)
(1.12634 0.070271 0)
(1.10247 0.0340236 0)
(1.10574 0.0216467 0)
(-0.241765 2.50702 8.89655e-21)
(-0.334562 2.38248 0)
(-0.29878 2.4108 0)
(-0.150187 2.60784 -3.25741e-20)
(-0.0923427 2.56388 1.58605e-22)
(-0.144668 1.98929 -1.50269e-19)
(-0.250896 1.86152 1.5141e-19)
(-0.0334145 1.33859 0)
(-0.16979 1.36534 0)
(-0.24169 1.40564 0)
(0.0340204 1.06503 0)
(-0.0179756 0.942517 0)
(0.373254 1.47076 1.7947e-19)
(0.416026 1.47892 8.15517e-20)
(0.590074 2.44162 -8.82003e-20)
(0.40718 2.5392 2.54194e-19)
(0.349671 2.08319 1.29996e-20)
(1.02099 -0.00829078 0)
(1.01542 -0.00995116 0)
(1.01488 -0.0161803 0)
(1.00736 -0.00136333 0)
(1.00496 -0.00109491 0)
(1.0077 -0.00468117 0)
(1.00916 -0.00387884 0)
(1.01402 -0.00455458 0)
(1.02212 0.016093 3.89587e-19)
(1.01843 0.01625 -4.92863e-19)
(1.02249 0.0180294 -3.87713e-19)
(1.02004 0.0171558 4.86649e-19)
(0.768771 1.29661 0)
(0.705392 1.35109 1.42947e-19)
(0.871175 1.20629 6.8043e-20)
(0.932792 1.14803 -9.0519e-20)
(1.15943 2.60407 5.21373e-21)
(0.82483 0.0977355 2.04525e-19)
(1.13887 0.102711 0)
(1.1878 0.189916 -1.31764e-19)
(1.17896 0.145951 -5.51939e-21)
(1.00316 0.13064 0)
(0.160648 2.96023 1.5455e-19)
(0.117017 2.86691 -4.61955e-19)
(0.0313481 2.37781 2.91623e-19)
(0.0964305 0.028269 -1.21553e-19)
(0.335956 3.4248 -1.18286e-19)
(0.195041 3.32125 0)
(0.227549 3.35763 1.53939e-19)
(0.256698 3.04106 -5.60186e-19)
(0.360713 3.20199 0)
(0.00716548 3.1205 1.73123e-20)
(0.0164607 3.12936 -2.11154e-19)
(0.015519 3.12524 3.09677e-19)
(0.0363108 3.13985 0)
(0.0345246 3.15058 0)
(1.19124 2.64476 0)
(0.540717 0.845142 -1.74668e-19)
(1.05633 0.973523 -2.05881e-20)
(0.962585 1.06216 0)
(0.805847 0.942143 -2.64053e-20)
(1.04365 0.877404 1.09364e-20)
(0.353369 0.41662 -3.30067e-19)
(0.702401 0.329355 -8.68402e-21)
(0.687864 0.252864 1.48876e-19)
(0.58685 0.404474 1.11155e-20)
(0.50882 0.364292 -4.5008e-19)
(0.674027 0.347917 0)
(0.70543 0.426246 2.4905e-19)
(0.713855 0.421109 0)
(0.623714 0.3891 0)
(0.609229 0.299784 0)
(0.782295 0.610889 1.36094e-19)
(1.19142 0.279062 -1.48669e-19)
(1.20034 0.410053 0)
(1.22328 0.354028 0)
(0.764207 0.198534 2.2212e-19)
(0.830685 0.540861 -1.3475e-19)
(0.737617 0.517798 2.34616e-19)
(0.932753 0.416866 -2.51408e-19)
(1.02022 0.0146418 2.64372e-19)
(1.01825 0.014291 -2.6683e-19)
(1.01594 0.0163248 0)
(1.03544 -0.00677648 0)
(1.02933 -0.00897038 -2.48332e-19)
(1.02705 -0.013016 2.46332e-19)
(1.02514 0.00954527 0)
(1.02394 0.0128392 0)
(1.01121 0.00388278 0)
(1.01436 0.00878063 0)
(1.01468 0.00385689 0)
(1.01385 0.00291675 0)
(0.0661727 1.3251 0)
(0.066985 1.28584 0)
(0.144326 1.32773 3.63235e-20)
(0.264349 1.45482 5.52233e-20)
(0.150542 1.42617 1.19365e-19)
(0.18806 1.43793 -1.93765e-19)
(0.16648 1.35882 0)
(0.123715 1.59064 1.80537e-20)
(0.104067 1.55407 0)
(0.352305 2.03323 -1.8785e-20)
(0.355714 2.3778 1.97346e-19)
(0.187678 1.43751 -1.5789e-20)
(0.253944 1.35665 2.97162e-20)
(0.192951 1.3433 -2.38519e-20)
(0.25722 1.30209 1.13876e-20)
(0.226843 1.57639 0)
(0.258153 1.60746 7.07591e-21)
(0.0227618 2.27499 2.27903e-21)
(0.0386206 2.67274 0)
(0.0595709 2.41335 2.03196e-20)
(0.054395 2.43705 0)
(0.0676247 2.66849 -6.56621e-20)
(0.0527823 2.69951 0)
(0.0335787 1.42103 4.38947e-20)
(0.0170929 1.45808 0)
(0.0270128 1.38717 0)
(0.0401432 1.396 -4.93231e-20)
(-0.000926059 2.64931 -1.07594e-20)
(0.027934 2.69738 2.29882e-20)
(0.0138794 2.71716 1.87944e-22)
(0.0342522 1.87773 -3.06851e-20)
(0.00319994 1.65587 -1.07309e-20)
(0.0886396 1.18333 0)
(0.0554458 1.06354 0)
(0.0381842 1.57016 -5.6219e-20)
(0.0197448 1.4412 -5.6009e-20)
(0.0352723 1.50382 7.14948e-20)
(0.0321855 1.59449 0)
(-0.151957 2.47265 2.09139e-19)
(-0.159989 2.60923 -8.981e-20)
(-0.0768263 2.54616 1.55685e-20)
(-0.0046389 1.89352 3.69555e-20)
(-0.0759114 2.51292 1.26565e-20)
(-0.0257359 2.45028 -3.12092e-20)
(1.02093 0.020735 -2.61942e-19)
(1.01787 0.0256519 2.63388e-19)
(1.01547 0.0173689 0)
(1.01768 0.0642329 3.63543e-19)
(0.996924 0.0567731 -4.14976e-19)
(0.959463 0.0407195 4.66992e-19)
(1.01851 0.0950981 -4.89083e-20)
(1.04138 -0.00665297 0)
(1.04931 -0.00250339 2.35659e-19)
(1.03784 -0.0109495 -2.35273e-19)
(1.06928 0.0366119 -1.37765e-20)
(1.06286 0.0189582 1.19484e-19)
(1.06134 0.0460075 0)
(1.05521 0.0401742 -4.29585e-20)
(1.03319 0.0374639 0)
(1.02745 0.0339146 0)
(1.02743 0.0128447 0)
(1.02444 0.0156176 0)
(1.03811 0.0295977 8.85512e-20)
(1.03837 0.0241624 -1.96254e-19)
(1.05024 0.02888 -9.38896e-20)
(1.04742 0.029018 -1.03642e-19)
(1.06796 0.051525 2.00446e-19)
(1.08784 0.0408184 0)
(1.09688 0.0863022 0)
(-0.164706 2.48302 1.01185e-19)
(-0.257009 2.36889 1.20399e-20)
(-0.246302 2.38403 0)
(-0.237323 2.53735 -9.92337e-20)
(-0.253595 2.5196 -1.99007e-20)
(-0.23357 2.53929 1.86709e-20)
(-0.0534752 2.60883 -1.91227e-20)
(-0.0920912 2.56929 1.91695e-21)
(-0.0609863 2.54178 -8.44244e-21)
(-0.0837807 2.59574 1.18759e-20)
(-0.0494005 2.58925 -1.49223e-20)
(0.0330264 1.6282 1.93395e-21)
(-0.0109803 1.98364 -1.45248e-19)
(0.357515 1.40891 -8.30682e-20)
(0.355248 1.35732 -4.29627e-20)
(0.648154 1.39982 -1.38166e-19)
(0.513824 1.46656 -7.88437e-20)
(0.573701 1.43806 0)
(0.580348 2.4177 8.09282e-20)
(0.649533 2.41285 1.28284e-19)
(0.405474 2.51585 3.6069e-20)
(0.407807 2.55722 -1.89912e-19)
(0.523012 2.51233 2.01407e-19)
(0.542661 2.45589 0)
(0.479531 2.5096 -2.07616e-19)
(0.237663 2.58573 4.16981e-19)
(0.348353 2.56835 -3.24341e-20)
(0.283098 2.64754 -5.76677e-19)
(0.926496 2.38081 2.53543e-19)
(0.827391 2.38177 0)
(1.01092 0.000148311 8.55329e-21)
(1.01535 -0.00557242 -7.09908e-21)
(1.01749 -0.00359039 -1.27516e-19)
(1.01484 -0.00115725 1.2896e-19)
(1.01218 0.000814747 0)
(0.632933 1.2647 0)
(0.645163 1.15839 0)
(0.741415 1.0633 0)
(0.642689 1.12138 0)
(1.18565 2.61532 2.74907e-20)
(1.07615 2.36222 0)
(0.855035 2.18545 9.05765e-22)
(0.82445 2.46011 0)
(0.92195 2.54608 -1.11362e-19)
(0.961144 2.50248 7.23916e-20)
(0.828447 0.145549 0)
(0.804635 0.131079 5.63715e-20)
(0.925115 0.123475 3.20638e-19)
(0.845137 0.113586 -1.21817e-19)
(0.832351 0.0595513 -3.71833e-19)
(1.05985 0.221066 -2.99159e-19)
(0.985979 0.283834 -6.34511e-21)
(0.910348 0.267147 2.98172e-19)
(0.997739 0.205063 2.44437e-19)
(0.948473 0.161142 -4.22189e-19)
(0.920541 0.168476 5.29598e-20)
(0.944068 0.226484 -1.12211e-19)
(0.926401 0.193089 0)
(0.992811 0.161858 2.07231e-19)
(1.04205 0.169711 0)
(1.03687 0.1996 0)
(1.09015 0.10929 9.33123e-20)
(1.0741 0.162286 -5.70767e-21)
(1.05699 0.224227 -4.99466e-20)
(1.09294 0.194565 0)
(1.02289 0.0425205 2.02796e-19)
(1.04444 0.0514771 2.48488e-19)
(1.03375 0.0396347 -1.99178e-19)
(1.04483 0.0570713 -1.67031e-19)
(1.01794 0.0654221 -2.57168e-19)
(0.993018 0.133669 0)
(1.00572 0.0924773 0)
(0.97679 0.0605968 -1.66331e-19)
(0.92668 0.0728509 6.57509e-20)
(1.04165 0.0901635 2.3223e-19)
(1.06955 0.106411 -2.69837e-19)
(1.07637 0.137599 2.39325e-19)
(1.03307 0.132073 0)
(1.07375 0.0940518 0)
(1.06101 0.075162 -1.09996e-19)
(1.04998 0.0858826 -1.89391e-19)
(0.584393 1.09025 2.91781e-20)
(0.625241 1.39981 6.44787e-21)
(1.16117 2.74059 -5.28793e-20)
(1.23761 3.07719 -1.18512e-20)
(1.25066 2.71291 4.76562e-20)
(1.28073 2.71109 -7.5387e-20)
(1.16758 2.35404 8.25027e-21)
(1.22625 2.97097 -1.08807e-20)
(1.24821 2.93962 5.4361e-20)
(1.2431 3.23311 -9.98611e-20)
(1.36601 2.9692 1.15486e-19)
(1.30473 2.89383 0)
(0.546808 0.848233 -1.54912e-20)
(0.118652 1.2546 2.21049e-19)
(0.546102 0.471418 2.17354e-19)
(0.353267 0.215553 2.33204e-19)
(0.526154 0.408667 2.54518e-19)
(0.549636 0.481157 -4.13756e-19)
(0.538995 0.503305 3.38549e-19)
(0.490483 0.422778 -1.29554e-19)
(0.417752 0.354848 2.937e-19)
(0.765677 0.25482 -1.2629e-19)
(0.724237 0.290044 0)
(0.720053 0.225723 3.84213e-21)
(0.721099 0.518952 1.30127e-19)
(0.694991 0.483818 -4.77276e-19)
(0.60188 0.489223 5.63523e-21)
(0.621117 0.472736 0)
(0.660284 0.741191 1.32938e-19)
(0.823048 0.77449 1.15605e-19)
(0.743149 0.858127 -1.36077e-19)
(0.857231 0.798165 -4.65462e-20)
(0.883365 0.827989 -9.83608e-21)
(0.890577 0.830947 1.01042e-20)
(0.827285 0.634218 -2.27769e-19)
(0.899119 0.702978 4.33855e-20)
(0.952632 0.70778 0)
(0.93346 0.676915 -6.24382e-20)
(1.01143 0.308681 7.00948e-20)
(1.09822 0.283905 9.09187e-20)
(1.04388 0.258959 1.1997e-19)
(0.995743 0.353362 -1.44082e-19)
(1.03257 0.418759 0)
(1.07443 0.401379 0)
(0.902061 0.34399 2.3603e-21)
(0.840207 0.283844 0)
(0.863354 0.276662 1.41652e-19)
(0.901515 0.274673 -3.9218e-21)
(0.921997 0.418705 6.99099e-19)
(0.880139 0.483084 1.81263e-19)
(0.882598 0.446093 -1.98927e-19)
(0.810175 0.434729 2.13406e-19)
(0.794708 0.434341 1.31295e-19)
(0.763843 0.419923 -1.27825e-19)
(1.02718 -0.000603137 2.1013e-19)
(1.01993 -0.000303586 0)
(1.01855 0.000534527 1.39146e-19)
(1.02117 -0.002269 -3.13419e-19)
(1.02223 0.00411777 1.5255e-19)
(1.02056 0.010835 -3.21038e-19)
(1.02174 0.0101721 0)
(1.02117 0.0103174 -6.64759e-20)
(1.01605 0.00758345 1.66484e-19)
(1.01693 0.0101343 -8.427e-20)
(1.01761 0.0094035 6.20194e-20)
(0.0432394 1.31416 0)
(0.0381689 1.35847 0)
(0.0523116 1.31029 0)
(0.0347867 1.27082 0)
(0.0685314 1.36723 -9.38608e-20)
(0.0793708 1.33498 3.36456e-20)
(0.105391 1.48432 1.31477e-20)
(0.0824364 1.33151 -1.7558e-20)
(0.0295033 1.4459 5.06849e-20)
(0.0342666 1.43606 -3.82866e-20)
(0.0629998 1.34683 -1.58687e-22)
(0.0576158 1.34777 5.80833e-20)
(0.0517361 1.32756 8.15431e-21)
(0.0386434 1.35628 6.75586e-21)
(0.106029 2.38942 -2.14125e-20)
(0.090423 2.43274 0)
(0.16198 2.08269 2.62341e-20)
(0.110399 1.70525 -2.13596e-21)
(0.232069 2.07072 -2.0481e-20)
(0.212735 2.45711 0)
(0.273299 2.4124 -1.75805e-19)
(0.306423 2.41231 1.24659e-19)
(0.22291 2.02199 -6.19075e-20)
(0.147038 2.18791 4.81653e-20)
(0.154328 2.31345 0)
(0.0152558 1.88697 5.21069e-20)
(-0.0108795 2.40549 3.28543e-20)
(-0.00190746 2.16197 0)
(0.00579685 2.4653 -5.35521e-21)
(0.0166957 2.31504 -2.01952e-20)
(0.0671911 1.42835 -9.23232e-21)
(0.126191 1.37602 1.64886e-19)
(0.112082 1.42968 -5.5809e-20)
(0.0528055 1.431 -4.5625e-20)
(0.0463501 1.43781 0)
(0.106408 1.40829 0)
(0.0101194 1.09127 -9.52504e-20)
(0.113997 1.36092 2.95952e-20)
(0.130859 1.36654 0)
(0.0645169 1.09862 -5.77253e-20)
(0.0431966 0.927649 1.27697e-19)
(1.03967 0.00981144 0)
(1.04465 0.00657742 -2.1973e-20)
(1.03844 0.0201362 -1.57809e-19)
(1.04743 0.0185739 0)
(1.05136 0.0182645 0)
(1.03638 0.0100685 -2.70735e-21)
(1.03184 0.00968774 2.55434e-19)
(1.03161 0.0152366 3.12407e-19)
(1.02596 0.0191727 0)
(1.02398 0.0197502 0)
(1.0348 0.0235649 1.5844e-19)
(1.02678 0.0246606 0)
(1.02596 0.0239907 0)
(0.0172898 2.15599 0)
(0.0135541 1.97223 7.60958e-21)
(-0.00621159 2.06892 -5.20342e-20)
(0.0849955 1.36557 0)
(0.116635 1.69943 -5.14812e-20)
(0.123753 1.50382 5.16306e-20)
(0.087438 1.35383 0)
(0.38524 1.69961 0)
(0.359206 1.27957 6.37762e-20)
(0.311135 1.33991 0)
(0.414936 1.27594 -1.04293e-19)
(0.460032 1.4425 0)
(0.439876 1.38704 5.59074e-20)
(1.02804 2.69024 -5.31036e-21)
(0.954141 2.41593 -3.10104e-19)
(0.896243 2.18419 3.67695e-19)
(0.84686 2.37191 9.2895e-20)
(0.83723 2.51133 0)
(0.904682 2.50244 0)
(0.890981 2.38157 0)
(0.898723 2.35453 -3.36821e-19)
(0.688173 2.4774 -1.13408e-19)
(0.799016 2.47247 -2.89808e-20)
(0.810279 2.442 2.29615e-20)
(0.679755 2.39242 0)
(0.785951 2.39064 0)
(0.740237 2.40092 -1.35698e-19)
(0.7652 2.50258 0)
(0.616722 1.09583 0)
(0.487127 0.925485 -1.39383e-19)
(0.56728 0.950612 -9.28947e-21)
(0.53002 1.0588 0)
(0.53204 1.01003 2.11313e-19)
(0.76702 0.885989 -3.48717e-20)
(0.773985 1.00331 0)
(0.746531 0.947725 4.71562e-20)
(0.63523 1.03816 0)
(0.643742 0.942035 0)
(1.16675 2.75511 -6.37141e-20)
(1.14368 2.82086 -1.71596e-20)
(0.940657 2.3363 2.60643e-21)
(0.901768 2.31614 -2.26193e-20)
(1.12954 2.72699 0)
(1.08151 2.69609 2.85953e-20)
(1.0873 2.48089 -1.06493e-19)
(0.98327 2.23085 -1.36232e-20)
(0.502584 1.36897 0)
(0.510838 1.07782 -2.558e-20)
(0.556204 1.13755 0)
(0.864284 0.214297 0)
(0.808443 0.171498 0)
(0.76359 0.146704 0)
(0.856215 0.223175 -2.23887e-19)
(0.783394 0.216098 1.33141e-19)
(0.936256 0.0588431 -1.36595e-19)
(0.951942 0.104234 0)
(0.927322 0.108812 5.92343e-20)
(0.870115 0.0849901 2.39211e-19)
(0.859145 0.0471763 -1.49439e-19)
(1.1743 3.36737 -3.45075e-19)
(1.22592 3.28801 0)
(1.14036 3.38547 -6.69631e-19)
(0.639271 3.54451 5.8708e-19)
(0.851067 3.11063 6.32678e-20)
(0.51002 0.85716 1.99423e-19)
(0.421028 0.851416 0)
(0.327132 0.515588 -5.25915e-20)
(0.445042 0.686018 2.85874e-19)
(0.540129 0.484399 -7.28569e-20)
(0.513073 0.531475 8.21857e-20)
(0.64617 0.540326 1.79371e-19)
(0.680506 0.554566 0)
(0.636949 0.620813 0)
(0.593049 0.556619 0)
(0.946818 0.592442 2.43544e-20)
(0.882381 0.531226 -1.74812e-19)
(0.902305 0.562152 1.29385e-19)
(0.936833 0.500778 -1.35515e-19)
(1.04582 0.473489 0)
(1.03855 0.557428 -3.09688e-20)
(0.835297 0.387569 -2.96558e-19)
(0.84094 0.373096 -3.54818e-19)
(0.790566 0.381753 2.30377e-19)
(0.785447 0.358392 -2.39697e-19)
(0.837881 0.312254 -1.85604e-19)
(0.789591 0.311331 2.28546e-19)
(1.02659 0.00551441 -1.62558e-19)
(1.02627 0.00591058 3.36697e-19)
(1.02933 -0.00083883 2.02965e-19)
(1.03316 0.000469613 -2.45545e-19)
(1.03261 0.00661615 0)
(1.02998 0.00783561 -4.01605e-19)
(0.0530811 1.63798 -1.18238e-21)
(0.0378796 1.56551 0)
(0.0778799 1.6821 -1.65884e-20)
(0.083135 1.66508 1.67883e-20)
(0.0852258 1.51142 -2.45612e-20)
(0.088266 1.49605 0)
(0.0841557 1.77515 0)
(0.0772281 1.61192 1.97851e-20)
(0.108836 1.50126 -1.77653e-20)
(0.100807 1.67543 6.68704e-21)
(0.0388436 2.02805 3.72877e-20)
(0.0317076 2.01833 -1.00309e-20)
(0.498938 1.37892 -1.61341e-20)
(0.493303 1.38913 1.86383e-20)
(0.438479 1.275 4.62324e-20)
(0.433634 1.29288 -1.3036e-21)
(0.622902 1.28492 0)
(0.537278 1.37213 9.60847e-20)
(0.556445 1.38353 -9.32518e-20)
(0.445507 1.26466 -4.47932e-20)
(0.504393 1.22024 0)
(0.552629 1.18633 0)
(0.649758 2.43546 1.70194e-19)
(0.666435 2.47462 4.17325e-19)
(0.709434 2.48993 -2.85989e-19)
(0.61081 2.47795 -7.24829e-20)
(0.563183 2.56237 9.43248e-20)
(0.524331 2.54334 -2.47448e-19)
(0.972369 2.37473 -2.03509e-19)
(1.01004 2.38811 0)
(0.914804 2.16422 -2.40939e-19)
(1.05072 2.67782 0)
(1.05322 2.66452 0)
(0.606545 2.25598 -2.24863e-20)
(1.03062 3.15849 9.43263e-20)
(0.897611 3.01845 -4.00342e-20)
(0.288474 0.917771 0)
(0.325617 0.760439 -1.0978e-19)
(0.465475 0.727388 -9.80307e-20)
(0.400191 1.98441 0)
(0.479609 2.7877 -4.47938e-20)
(0.434588 2.57144 0)
(0.670496 0.681077 -2.79409e-19)
(0.753391 0.684793 3.73004e-19)
(0.778377 0.620937 -3.65772e-19)
(0.659563 0.645292 -3.70049e-20)
(0.709867 0.599377 -1.5198e-19)
(1.01546 2.7644 -7.12388e-20)
(1.04631 2.83349 1.04664e-20)
(0.655718 2.13813 2.13513e-19)
(0.585651 1.71889 -1.51192e-19)
(0.712004 1.90937 -1.03634e-19)
(0.996733 2.46997 -3.9602e-20)
(0.99738 2.4567 4.5734e-20)
(0.668229 1.875 5.43174e-21)
(0.46245 1.34164 3.33666e-20)
)
;

boundaryField
{
    wall-4
    {
        type            noSlip;
    }
    velocity-inlet-5
    {
        type            fixedValue;
        value           uniform (1 0 0);
    }
    velocity-inlet-6
    {
        type            fixedValue;
        value           uniform (0 3 0);
    }
    pressure-outlet-7
    {
        type            zeroGradient;
    }
    wall-8
    {
        type            noSlip;
    }
    frontAndBackPlanes
    {
        type            empty;
    }
}


// ************************************************************************* //
