/*--------------------------------*- C++ -*----------------------------------*\
| =========                 |                                                 |
| \\      /  F ield         | OpenFOAM: The Open Source CFD Toolbox           |
|  \\    /   O peration     | Version:  4.0                                   |
|   \\  /    A nd           | Web:      www.OpenFOAM.org                      |
|    \\/     M anipulation  |                                                 |
\*---------------------------------------------------------------------------*/
FoamFile
{
    version     2.0;
    format      ascii;
    class       volScalarField;
    location    "40";
    object      p;
}
// * * * * * * * * * * * * * * * * * * * * * * * * * * * * * * * * * * * * * //

dimensions      [0 2 -2 0 0 0 0];

internalField   nonuniform List<scalar> 
918
(
0.586342
1.23424
0.00640626
0.585574
-0.00943901
1.20187
-0.470351
0.744669
0.566213
-0.0609095
0.00390266
0.561788
1.06279
0.829978
-1.0886
0.0146035
0.693985
-0.352007
0.565587
0.00649787
0.781119
0.57266
0.575685
0.566079
0.631217
0.810747
0.943605
0.0230399
0.000714168
-0.00435883
-0.00743327
-0.0375333
-0.0248251
1.08523
1.13585
1.15843
0.534746
0.371305
-0.318095
-0.398287
-0.390292
-0.515546
0.73893
0.738485
-0.150146
0.747537
0.755199
0.553768
0.565552
0.566493
0.567575
0.566531
0.567954
0.445372
-0.0673137
-0.0986148
-0.0420783
-0.0310358
0.0896794
0.00594689
0.00313677
0.00747658
0.0022008
0.484854
0.557449
0.554719
0.567003
0.576575
1.17301
1.14404
1.16965
1.08666
1.10146
1.04048
1.01249
0.849915
0.871276
0.817093
0.802944
-1.50969
-2.46868
-0.501896
-0.250726
-0.00552728
0.022204
0.0289207
0.684778
0.683366
0.694526
0.707929
1.12339
-0.329556
-0.479887
0.565397
0.564375
0.572488
0.572846
0.570011
0.568092
0.00825754
0.00739508
-0.000262401
0.00584805
-0.000461859
0.769606
0.768058
0.567758
0.564353
0.581594
0.601208
0.59544
0.315441
0.633735
0.64375
0.631386
0.798551
0.794451
0.8021
0.918094
0.882287
0.980801
1.00407
0.0151317
0.004695
0.00487251
-0.0094655
0.00237368
0.530674
0.522647
0.54963
0.538142
0.540574
0.288305
0.155229
0.46426
0.492316
-0.231596
-0.302752
-0.391976
-0.420903
-0.525237
0.65463
0.727805
0.726989
-0.160685
-0.095936
-0.224101
-0.0135583
-0.0783288
0.544094
0.551082
0.545436
0.56112
0.555837
0.557435
0.569858
0.566927
0.568448
0.506051
0.608502
0.376034
0.335798
-0.209408
-0.111788
-0.20774
-0.016815
-0.0117902
0.107561
0.134396
0.0798439
0.0767972
-0.00618905
0.00104753
-0.000498737
0.000649983
0.00168088
0.479469
0.46944
0.498282
0.505493
0.548063
0.548999
0.552128
0.55068
0.962632
0.985189
0.993724
0.967188
-3.48509
-6.54081
0.0713072
0.212666
0.00254697
-0.000400691
0.0038332
0.00112029
0.0039906
-0.000564016
0.042941
0.0417132
0.0332478
0.0439547
0.670337
0.671768
1.02888
1.02234
0.992076
0.934819
0.553599
0.555721
0.561215
0.556714
0.00348461
0.00591395
0.00585298
0.755863
0.763852
0.7617
0.278658
0.19277
0.365978
0.394455
0.660152
0.64875
0.658409
0.693648
0.730383
1.01054
1.02844
1.02864
1.03663
1.08166
1.09452
1.06036
0.51099
0.520454
0.516026
0.552786
0.550499
0.551397
0.547133
0.548428
0.545833
-0.0146762
-0.375473
0.552578
0.568479
0.548488
0.555127
0.726113
0.79416
0.708407
0.71817
0.717065
0.0539767
-0.00722357
0.29121
0.258375
0.420513
0.456224
0.433377
0.933864
0.895441
0.945437
0.918474
0.878591
0.904607
-0.414612
-1.65404
-0.914062
0.573574
0.382449
0.47159
0.056707
0.0327982
0.0387266
1.01058
1.10184
0.656403
0.843818
0.892605
0.765664
0.795968
0.856801
0.782858
0.816456
0.848279
0.826504
0.611907
0.566265
0.570533
0.857052
0.910268
0.172112
0.120941
0.0645512
0.151607
0.207951
0.18093
1.0522
0.964822
1.03759
0.563963
0.564573
0.0138487
0.0219591
0.568765
0.568957
0.00162432
0.0037538
0.458171
-0.784069
0.149383
0.556897
0.547207
0.564162
-0.0519498
0.407742
0.00570035
0.0960993
0.0393964
0.559423
0.495543
0.457253
0.0216669
0.00581975
0.00765164
-0.185612
0.561476
0.559628
0.563674
0.564721
0.565358
0.00830134
0.0126055
0.0118379
0.00943728
0.0119083
0.00990114
0.528858
0.546192
-0.132294
0.563796
0.566002
0.565811
0.558681
0.564529
0.562463
0.0126877
-0.00347526
-0.0100659
0.266467
0.390391
0.700472
0.800318
0.669624
0.437674
0.184507
0.602571
0.66648
0.572757
0.726164
0.71949
0.740932
0.220771
0.0612144
0.221724
0.160924
0.555094
0.553494
0.545614
0.542567
0.559118
0.557302
0.561703
0.558666
0.561562
0.563008
-0.00443656
-0.0291413
-0.0449329
-0.116294
0.363819
0.631674
0.297932
0.339434
0.181825
0.00763436
0.00669598
0.00571422
0.00216423
0.0499279
0.0230091
0.0914745
0.0917062
0.0573315
0.0297112
0.0394666
0.0245573
0.024841
0.552872
0.551189
0.557494
0.565969
0.504904
0.508674
0.474352
0.494679
0.479888
0.422239
0.456826
0.432038
0.0164853
0.0272392
0.00939697
0.0124716
0.0219972
0.0225939
0.0195492
0.0149151
0.0175456
0.0110384
0.00719649
0.00619188
-0.143684
-0.256082
1.02598
0.958508
0.154873
0.550464
0.557044
0.553658
0.558661
0.561726
0.562581
0.560346
0.556918
0.546795
0.548572
0.545053
0.545741
-0.0636655
-0.208389
-0.0395473
-0.102062
0.162346
0.652257
0.401746
0.330649
0.331214
0.557104
0.976398
0.739134
0.727281
0.76505
-0.322461
0.0547669
-0.259266
0.331416
0.154445
0.700105
0.749666
0.771929
0.718517
0.67158
-0.217101
0.573058
-0.0213334
0.0241372
0.22597
0.115252
0.744438
0.703585
0.709447
0.728851
0.749385
0.707103
0.689721
0.686796
0.72472
0.729398
0.531725
0.300364
0.245492
0.212456
0.687531
0.570349
0.623317
0.535819
0.549963
0.552742
0.551281
0.533639
0.540994
0.536621
0.54264
0.545833
0.55509
0.555648
0.550702
0.552964
-0.00318886
-0.00829504
0.019544
-0.100663
-0.0903486
-0.166825
-0.0182055
0.104946
0.072824
0.270736
0.350838
0.0792883
-0.0183707
0.00885567
0.0317164
0.205931
0.263538
0.118851
0.20046
0.196225
0.177182
0.293132
0.290014
0.0202354
0.0140221
0.0153348
0.0124344
0.0644734
0.133083
0.150339
0.0377374
0.0345503
0.00638468
0.00328362
0.0184572
0.0165405
0.018688
0.0583882
-0.0476906
0.00775111
0.0281171
0.0398434
0.0389398
0.0246015
0.545754
0.547765
0.547539
0.555534
0.572426
0.588184
0.546031
0.527188
0.517889
0.520655
0.494188
0.504728
0.500117
0.513207
0.533681
0.542773
0.54092
0.543568
0.526588
0.528189
0.515119
0.518555
0.495693
0.476942
0.464938
0.00400246
0.0418656
0.0449006
-0.00846888
0.02413
0.00557767
0.0329655
0.0504697
0.035424
0.027144
0.0230213
0.0191036
0.0222074
-0.043555
0.0426771
-0.150295
-0.185732
-0.260844
0.928407
1.03432
0.850972
0.618777
0.631991
0.877426
0.959801
0.589707
0.76181
0.79089
0.627454
0.872865
0.555524
0.555085
0.55263
0.552166
0.553483
0.0267405
0.133349
0.13262
0.196812
0.307597
0.42952
0.337125
0.211865
0.343737
0.334303
0.646232
0.662304
0.615128
0.637499
0.638036
0.463788
0.540433
0.594498
0.55097
0.595386
0.614982
0.578593
0.60539
0.55626
0.51044
0.510788
0.458626
0.472867
0.451818
0.434863
0.54516
0.522269
0.532605
0.523325
0.544023
0.566736
0.561718
0.594848
0.605835
0.527966
0.486486
0.49375
0.525093
0.486691
0.501135
0.515758
0.255132
0.185268
0.222791
-0.0666
0.0184453
-0.0580931
-0.0891406
0.0274179
0.326853
-0.413798
-0.474609
-1.0302
0.516414
1.0431
0.699619
0.643223
0.746469
0.722644
0.724841
0.754763
0.757417
0.678472
0.695231
0.702432
0.655076
0.677761
0.707163
0.702876
0.558786
0.413897
0.405894
0.36794
0.244469
0.283132
0.485644
0.399946
0.32659
0.340992
0.501088
0.394486
0.459435
0.487645
0.408261
0.381185
0.577755
0.648266
0.636733
0.609404
0.531059
0.543562
0.572534
0.606681
0.631999
0.668607
0.542201
0.548104
0.549418
0.546993
0.544028
0.546922
0.547078
0.549701
0.550485
0.553578
0.55253
0.00570857
0.0159604
0.00333393
-0.00486287
0.0209443
0.0187161
0.0688989
0.0535067
0.0343403
0.0413908
0.0152761
0.0149468
0.0186664
0.0265501
0.144871
0.145923
0.126923
0.0946662
0.27453
0.412591
0.476235
0.354838
0.263645
0.288981
0.302526
0.0252265
0.0537819
0.0425292
0.0795864
0.0766849
0.014126
0.00947099
0.0106992
0.0137429
0.0278055
0.0058118
0.00909776
0.0140389
0.00886633
0.00625867
0.00504207
0.529757
0.523301
0.52366
0.51819
0.517332
0.530316
0.534652
0.536984
0.542326
0.544127
0.534822
0.540051
0.5436
0.0311696
0.00714296
-0.0044106
0.018257
0.0150703
0.0194423
0.0148572
0.155172
0.0870439
0.0850756
0.0411918
-0.0903069
-0.0326473
0.522695
0.521499
0.525315
0.749421
0.602636
0.52655
0.628367
0.72787
0.302652
0.495128
0.330762
0.914035
0.803927
0.94974
0.559181
0.262898
0.423022
0.480882
0.270284
0.348026
0.350332
0.251098
0.279256
0.302732
0.406783
0.29688
0.278924
0.0287752
0.223774
0.342242
0.328286
0.454148
0.521336
0.278792
0.206323
0.175578
0.637367
0.656744
0.679596
0.646869
0.672334
0.6045
0.592568
0.611302
0.620142
0.61621
-0.75529
-0.465223
-1.37858
-0.669015
-0.229184
0.547667
0.512639
0.792482
0.676937
0.735031
0.720584
0.68949
0.653413
0.666471
0.69809
0.398187
0.503963
0.480899
0.483649
0.376333
0.320299
0.617956
0.609824
0.649454
0.67254
0.639196
0.674058
0.53998
0.539716
0.539065
0.535767
0.534379
0.536421
0.102203
0.0691865
0.114497
0.0934713
0.0690528
0.0524416
0.037192
0.0289906
0.0194383
0.0175186
0.0345848
0.0380267
0.186528
0.126038
0.0580926
0.0848264
0.0238445
-0.0447682
-0.064081
0.0405081
0.132431
0.133716
0.440013
0.678397
0.498787
0.668648
0.535348
0.566513
0.516508
0.513421
0.540052
0.423252
0.497903
0.310605
-0.22449
-0.104804
0.77472
0.837604
0.612226
0.483693
0.193949
0.322989
0.586136
0.511406
0.554359
0.625717
0.61622
0.0377665
0.066621
0.399385
0.600865
0.268275
0.20209
0.217419
0.380508
0.333786
)
;

boundaryField
{
    wall-4
    {
        type            zeroGradient;
    }
    velocity-inlet-5
    {
        type            zeroGradient;
    }
    velocity-inlet-6
    {
        type            zeroGradient;
    }
    pressure-outlet-7
    {
        type            fixedValue;
        value           uniform 0;
    }
    wall-8
    {
        type            zeroGradient;
    }
    frontAndBackPlanes
    {
        type            empty;
    }
}


// ************************************************************************* //
