/*--------------------------------*- C++ -*----------------------------------*\
| =========                 |                                                 |
| \\      /  F ield         | OpenFOAM: The Open Source CFD Toolbox           |
|  \\    /   O peration     | Version:  4.0                                   |
|   \\  /    A nd           | Web:      www.OpenFOAM.org                      |
|    \\/     M anipulation  |                                                 |
\*---------------------------------------------------------------------------*/
FoamFile
{
    version     2.0;
    format      ascii;
    class       surfaceScalarField;
    location    "40";
    object      phi;
}
// * * * * * * * * * * * * * * * * * * * * * * * * * * * * * * * * * * * * * //

dimensions      [0 3 -1 0 0 0 0];

internalField   nonuniform List<scalar> 
1300
(
3.75095
5.62643
-3.03914
3.75095
-7.57395
5.62643
-4.43389
4.43389
-0.853117
0.853117
1.87646
1.87449
-3.0018
3.0018
-2.45056
2.45056
-2.5481
2.5481
-5.24644
5.24644
-5.06811
5.06811
4.66019
-4.66019
-6.14428
6.14428
-1.20071
1.20071
-3.88117
3.88117
3.16875
-3.16875
-2.32534
2.32534
-0.22532
0.22532
-0.553135
4.30409
3.19782
3.19782
-2.02527
2.02527
-4.86543
4.86543
6.21767
-6.21767
4.93204
-4.93204
-1.8929
-2.19486
1.7926
-11.5532
-5.78135
-5.78135
-8.44024
8.44024
-2.81381
2.81262
2.94456
-2.94456
-1.86372
1.86372
-4.34782
-0.0860687
-4.34782
4.444
-0.0101103
4.444
-0.943414
0.0902971
-0.943414
3.91379
-3.91379
0.729191
0.123926
0.729191
3.06511
-3.06511
-1.87716
3.75363
1.87379
-1.87178
6.17587
-1.87917
3.75366
-5.95707
5.95707
-3.20028
0.198485
-3.20028
2.82672
0.175076
2.82672
-6.779
6.779
-2.53622
0.0856655
-2.53622
2.38327
0.0672873
2.38327
2.8686
-2.8686
-2.65174
0.103637
-2.65174
2.43354
0.114566
2.43354
0.353687
5.27274
-5.98012
8.79274
-5.27274
0.0263057
5.20829
0.0381506
5.20829
-5.10562
0.0375121
-5.10562
5.01213
0.0559782
5.01213
4.73683
-0.076636
4.73683
-4.78365
0.123463
-4.78365
-3.59116
-4.0959
-6.32145
0.177175
-6.32145
-1.20089
0.000176404
-1.20089
1.15827
0.0424423
1.15827
-3.63124
3.63124
-4.21806
0.336887
-4.21806
3.12261
0.0461412
3.12261
1.86903
1.88193
5.61998
-5.61998
2.45123
-2.31995
-0.00538878
-2.31995
-2.29376
-2.63828
2.29376
0.0315787
-0.471576
0.246256
-0.471576
3.1601
0.037717
3.1601
2.27943
0.154109
-2.27943
0.254162
3.2357
-3.2357
1.35542
0.66985
1.35542
-5.56793
5.56793
4.9536
0.0585298
-4.9536
0.0881687
6.15609
0.0615798
6.15609
-6.19976
-0.0179121
-6.19976
2.73196
-4.92682
-2.46379
5.95755
0.18673
-5.95755
0.176193
2.91492
0.0296444
2.91492
-2.91883
2.91883
-2.98401
0.03945
-2.98401
-2.2475
0.383779
-2.2475
1.57755
0.286175
1.57755
-4.21632
-0.131502
-4.21632
-4.36302
0.144959
4.36302
0.0809815
1.17412
-1.17412
-1.0529
0.109482
-1.0529
-4.05937
-0.156947
4.05937
-0.145577
-3.77324
-0.140552
-3.77324
-3.024
0.0399839
3.024
0.0411089
3.11316
0.0469415
-3.11316
0.0480546
-1.87089
3.75282
-1.88006
3.75385
-5.5821
-0.374976
-5.5821
6.2687
-0.311621
6.2687
3.55613
0.325035
-3.55613
0.355852
2.69957
0.127147
2.69957
-6.74628
-0.0327163
-6.74628
6.75763
0.0213671
6.75763
2.61388
0.0856962
-2.61388
0.0776579
2.33596
0.0473069
2.33596
2.88665
-0.0180498
2.88665
-2.86758
-0.00101797
-2.86758
2.79741
-2.79741
2.7285
0.0689156
-2.7285
0.0767575
-11.1328
11.1149
-0.0351442
-11.0977
5.17314
5.17314
4.15194
0.584891
4.15194
-4.99979
0.216133
-4.99979
3.02976
-5.49355
3.1163
-6.70746
4.7073
-16.2605
4.31576
-8.41166
6.60425
-6.60425
6.47446
0.129785
-6.47446
0.15301
-1.24462
0.043734
-1.24462
-3.03193
-0.599314
-3.03193
4.27885
-0.647612
4.27885
-3.02775
3.02775
-3.07671
0.0489625
3.07671
0.0459035
2.32521
0.010751
-2.32521
0.00525877
0.604774
0.124417
-0.604774
0.133197
3.41985
-0.184151
3.41985
-3.04795
-0.187746
-3.04795
-1.29377
0.0491441
1.29377
0.0616487
-5.81717
0.249242
-5.81717
-11.1909
0.0931775
-11.1527
-6.10658
-6.10658
2.33366
11.1264
-2.88883
0.021248
2.88883
0.0260927
2.97428
0.0534706
-2.97428
0.0554465
-2.86008
0.0626639
2.86008
0.0587518
-2.63128
0.383778
-2.63128
-1.16496
1.16496
-1.34115
0.176191
1.34115
0.236399
1.40944
-0.235319
1.40944
1.11808
0.0401882
-1.11808
0.0651869
-3.67338
-0.0998603
-3.67338
6.50176
-0.233065
6.50176
-2.94155
-0.106401
2.94155
-0.0549029
-0.0334073
11.1483
-5.13974
0.0341142
5.13974
-11.2099
11.244
-3.25861
0.627332
3.25861
0.893323
5.28978
0.27815
-5.28978
0.28999
6.69251
0.0651184
-6.69251
0.088264
-2.55124
-0.480686
-2.55124
-5.01683
-0.565263
5.01683
-0.737982
-11.4741
-0.202336
11.6764
-11.4181
6.01951
0.136584
-6.01951
11.3806
-1.09806
-0.0760675
1.09806
0.0669043
1.71034
-0.300896
1.71034
3.58797
-0.168124
-3.58797
-0.0854079
-6.65661
-0.089667
6.65661
-0.154852
-2.10936
-0.441876
2.10936
-0.399027
-4.26689
4.30461
1.90898
-2.54452
-2.38231
-5.1828
1.85154
1.90128
4.30277
-10.1829
-6.07759
-10.0067
7.25795
-6.96796
-9.27094
9.1943
7.64876
-7.78931
-5.78706
5.83296
6.48269
-6.44159
1.87873
1.87489
7.86854
-7.67005
-15.6409
15.2659
7.4398
-7.35414
15.8251
-15.8578
-17.9043
17.9695
-5.71229
5.81593
-6.72794
6.72693
-6.94663
6.89173
-3.10299
-3.60447
13.1768
-12.9997
8.37555
-8.38094
-8.54361
8.8805
3.38197
0.92264
3.42891
-1.88232
3.76105
-1.87134
3.78032
2.67982
-5.78281
2.81373
-5.19604
4.08507
4.29048
-4.11665
-1.06614
-5.91951
5.94915
-5.82148
5.88024
8.99719
-9.08326
-1.88521
3.7601
-1.86865
3.76992
-3.42648
-2.36058
3.38034
0.922433
8.09964
5.0772
-8.28637
-1.72031
-7.96181
7.79368
-8.18027
7.99253
-0.434844
5.8174
-5.38255
4.43059
-1.55481
7.37221
5.70314
5.91927
5.86369
-5.58554
1.10426
-6.48682
-6.39865
-2.49462
2.6041
2.4317
-2.30778
5.98511
1.66365
5.83954
-5.65282
-2.13649
-5.75268
3.82178
2.01118
3.87074
4.07689
2.40581
4.11687
3.03068
-3.0356
0.00491267
-3.05627
6.08696
0.7245
-5.41686
-4.49442
4.9211
2.94744
5.09618
-5.47234
-2.19771
-5.11649
-9.53385
-6.10704
-10.0991
10.1118
5.15414
9.80015
-11.9978
11.843
4.74323
2.69657
4.81052
-4.87288
-2.48126
-4.79522
11.6353
-2.60041
-9.03489
-10.3525
-7.55184
10.3311
5.49395
10.9943
6.97517
11.0825
4.43765
7.19766
-9.9316
2.37976
-3.86671
-1.84558
-3.78996
3.68621
2.12972
3.80078
-4.21334
-2.51461
-4.19209
-4.28786
-2.65877
4.30591
2.42102
-4.40238
-3.77789
4.50879
2.38294
4.06047
-10.1381
4.35118
-7.95565
-9.24176
-3.75791
-9.08875
3.52233
2.58078
-6.10311
-2.26048
8.52266
-4.23218
7.45652
-5.08086
-3.30009
-5.0756
-6.80348
-1.74013
-6.65852
-8.84205
8.36136
-9.17033
8.52272
12.5913
-5.68287
-6.90847
-3.96847
-2.47311
3.92042
-0.491509
-3.71073
3.71564
0.0503254
3.83065
4.75329
4.26178
-3.88777
-1.93371
-3.83232
3.83178
2.04846
3.89444
6.77887
2.21832
6.76876
-6.49016
-2.59309
-6.62166
9.04198
-8.6582
2.90392
-2.85477
5.34838
2.64415
-5.16423
-2.79758
6.19305
-3.18034
-3.01271
-12.2124
10.5758
1.63656
-4.84016
-0.409571
-0.184251
-5.49034
-3.78059
5.36688
0.55239
11.1282
7.3476
-5.5116
5.76085
6.16481
6.22334
-0.175303
5.77668
-5.14935
5.33103
-2.45144
-2.8796
5.33829
-5.49524
-1.28337
-5.33505
4.05168
0.344298
1.66715
-1.42089
-1.94514
-0.549481
-1.87996
1.45722
0.974481
1.58164
0.94592
1.65819
-2.95422
0.559293
2.39493
-2.0083
-1.74848
-3.71185
-1.11531
4.82716
5.69457
2.09911
-5.60917
-0.143511
2.62751
-2.58507
-0.735844
-2.976
2.18352
-2.91937
-3.70902
-1.89774
5.60677
-3.37121
-0.461112
3.31774
0.553003
-3.82558
-2.09392
3.78613
0.33074
-3.12555
6.18828
-3.06273
-5.05927
2.52876
3.5582
4.53994
-4.78906
2.44631
2.34275
-1.23086
4.21025
0.885922
4.3374
-6.76821
4.5705
5.74238
3.13812
-6.06742
0.950926
-5.81728
8.4592
-7.2812
-1.178
4.09331
4.36589
7.13113
5.46021
-5.72609
12.8572
-1.18492
-6.09628
7.0022
-3.86408
4.76859
-8.63267
-10.2288
4.13252
-9.18701
10.9632
-1.77623
-3.63856
-8.35928
12.8256
-1.20781
-11.6178
8.59234
-4.13817
-4.24544
8.38361
-6.73858
6.7267
-1.93726
-4.78944
-10.139
-5.71879
10.2287
1.61432
-9.84587
12.2256
-2.64822
4.06617
0.744347
4.11348
3.21766
-5.39379
2.17614
3.52092
-5.45818
2.05233
-7.44612
-6.78458
12.156
-5.37145
-10.5425
-9.57049
-0.971996
2.53101
9.69462
-9.50618
7.44692
2.05927
3.30825
0.586193
-3.37716
-0.412793
0.24679
4.53372
-4.78051
4.04757
4.20168
3.33961
1.19411
3.8413
2.10785
-3.86739
-0.324697
-4.15308
1.49431
-1.73206
-3.67923
5.17354
-4.0684
0.389167
-2.73957
-3.50805
6.24762
-4.58514
3.03713
3.15115
5.08559
-4.91338
1.40532
-2.40035
-2.51303
2.66307
-4.39513
1.97625
3.19728
4.35919
0.581304
5.94464
6.2114
-8.52542
0.56977
11.2886
-9.56829
2.48074
8.60181
-9.92766
0.357161
-8.73159
0.991482
-5.22367
-5.11163
5.094
-6.83413
-3.53867
6.15312
0.61564
-6.2341
-0.424422
-6.02232
-2.81972
-6.4642
-3.04611
-6.12422
-8.77221
-1.63783
-7.13438
6.72353
-6.67106
-3.42805
7.40904
1.11368
-7.39196
7.31589
-7.47107
7.17018
0.0950527
3.62059
4.35683
1.88372
-2.38973
4.27345
-5.07757
7.29589
-8.55217
3.4746
4.01765
-6.61074
-4.53452
5.03164
4.01034
5.31781
8.9133
-10.4169
1.50364
-10.732
12.0363
-1.30427
-16.4915
5.75946
-7.57817
2.58633
0.317583
2.63007
0.603536
2.49184
-3.09538
-2.25124
-2.18959
-2.37033
-3.44523
5.81556
1.14038
-3.46687
2.32648
-3.53589
4.67628
-0.113091
-3.35378
5.3081
-2.81626
5.62568
-3.64898
1.9767
3.37679
5.72411
-2.34732
4.37738
-1.73323
1.86543
-4.21275
-1.5798
-2.96601
5.09573
-3.28161
3.67077
-0.315223
3.986
-4.08045
0.900116
-0.740843
3.46084
3.715
4.28543
-3.09132
2.94003
-4.67326
-1.27272
-4.09196
-0.894673
-0.28967
-3.75531
4.04498
6.03458
-6.32425
-5.22856
9.54483
-4.31627
7.7263
-5.38981
-2.33649
-4.24734
-4.41087
3.86356
1.91312
9.63943
0.235852
-5.62566
-4.9135
-4.02018
3.19505
2.13598
-1.88851
3.52507
2.07276
-0.405614
0.531934
1.0497
1.85718
-1.32525
0.237991
1.61919
-1.1829
1.91779
0.709716
-1.95798
0.0780255
-1.33147
3.51499
1.06345
-2.03794
0.712686
1.04398
-3.49542
4.93309
-2.55147
-2.38162
5.97707
1.14184
-3.69331
4.19321
-3.84891
2.34075
-3.45606
-1.35256
-5.20147
-3.53783
-2.57368
4.90017
-3.24187
5.34098
1.19114
-5.19747
6.38862
-3.59894
1.7012
-3.09921
3.80892
-1.07733
-2.02188
2.85772
2.74905
-2.96873
-0.00727603
-0.111003
2.35705
-2.46806
-0.562312
-2.57061
-4.5728
4.90354
-2.10645
4.55276
2.167
-1.91531
6.46807
1.81056
-3.72587
-3.24871
-3.70982
-1.38312
3.15682
-0.579112
-4.21611
-5.36856
4.13041
0.206988
-6.8783
7.6815
-0.803197
-3.93086
-0.639635
4.73295
-5.93211
0.473931
-3.87978
3.80171
4.68764
4.89462
-11.3994
-0.218361
-6.24527
1.14507
-7.39034
5.51096
-3.59677
7.72929
-10.3741
6.94608
-9.26045
6.5513
-0.839043
6.25466
-4.07852
2.78023
-8.49903
-6.88471
5.38498
-2.68841
6.12933
-3.04698
9.17631
-5.6952
5.14691
4.0294
-0.968372
-4.10723
-5.16391
4.19554
-0.0170043
4.09647
4.97356
-2.86571
4.64887
2.26087
-4.66122
-2.13426
-6.5004
1.83919
-3.34925
-1.91678
3.75597
3.16881
3.755
1.24294
-3.34221
7.20157
-8.17357
-1.83012
-3.28151
5.15752
-0.961984
3.36623
-6.64774
-1.85744
4.86514
-0.84962
-4.01552
0.817739
-4.35641
1.66069
-6.0171
5.17344
-5.59786
2.19104
-9.76921
-5.20092
-5.13402
-2.23237
-5.23871
-7.60133
5.36896
-1.84187
5.47403
-8.55926
7.70964
-3.47702
8.84598
-5.42948
-1.03471
5.82851
1.34167
10.1876
0.175846
-4.71036
-1.90269
3.95487
-2.05218
1.29236
-3.57947
0.375402
2.48639
3.49068
-6.53806
-0.0726796
-4.78304
-3.92742
7.93777
5.61741
11.652
1.23505
9.11896
-1.18119
10.354
4.13663
4.37303
-3.01702
4.52066
1.02797
4.50257
-0.858094
2.83479
1.77197
1.77215
0.812917
2.32388
1.39111
3.224
0.128622
-2.06096
4.63263
-8.6528
-0.993037
-8.06791
1.12639
5.82307
-4.69668
3.08823
-0.952252
1.03605
0.0811327
-1.59292
1.51179
-2.79846
-1.99853
-0.379342
-1.64498
2.35766
1.87002
-1.97832
-0.820143
0.367434
-3.90526
3.08863
-3.09591
-0.34686
6.04175
-2.77334
0.305282
-1.07214
-2.26533
-2.81481
2.73679
6.17549
0.29258
3.11277
5.19612
3.1022
0.236487
3.87798
-5.65421
-3.56814
-5.87257
-0.361612
4.37133
1.73882
7.95581
5.76822
4.80624
-1.84151
-10.0151
6.52
-1.99934
5.21572
-1.20021
-4.81689
4.99439
2.30149
-5.61003
0.0121713
-4.80472
-6.80406
-0.557511
8.26715
-9.63014
8.59542
5.7757
1.35868
-4.40807
-0.725951
4.23188
0.14115
10.4952
-1.17877
-6.73553
7.9143
-4.6443
3.65126
0.776961
2.74811
2.28875
1.3365
-5.39903
-10.0957
-1.95611
-1.53931
-4.33773
0.489432
-2.35945
6.2733
-2.62203
3.9368
5.29227
6.32832
-2.14665
-4.1776
6.46292
-2.52612
3.8022
)
;

boundaryField
{
    wall-4
    {
        type            calculated;
        value           uniform 0;
    }
    velocity-inlet-5
    {
        type            calculated;
        value           uniform -3.75095;
    }
    velocity-inlet-6
    {
        type            calculated;
        value           uniform -5.62643;
    }
    pressure-outlet-7
    {
        type            calculated;
        value           nonuniform List<scalar> 8(3.03914 7.57395 4.08777 9.76056 7.68706 5.19575 6.14606 9.02306);
    }
    wall-8
    {
        type            calculated;
        value           uniform 0;
    }
    frontAndBackPlanes
    {
        type            empty;
        value           nonuniform 0();
    }
}


// ************************************************************************* //
