/*--------------------------------*- C++ -*----------------------------------*\
| =========                 |                                                 |
| \\      /  F ield         | OpenFOAM: The Open Source CFD Toolbox           |
|  \\    /   O peration     | Version:  4.0                                   |
|   \\  /    A nd           | Web:      www.OpenFOAM.org                      |
|    \\/     M anipulation  |                                                 |
\*---------------------------------------------------------------------------*/
FoamFile
{
    version     2.0;
    format      ascii;
    class       volVectorField;
    location    "40";
    object      U;
}
// * * * * * * * * * * * * * * * * * * * * * * * * * * * * * * * * * * * * * //

dimensions      [0 1 -1 0 0 0 0];

internalField   nonuniform List<vector> 
918
(
(0.985091 -0.000550383 0)
(0.00478874 2.96626 0)
(0.00377978 0.801204 0)
(0.979828 0.00240833 0)
(-0.0200847 2.01339 1.39906e-20)
(-0.00704722 2.94891 -1.11678e-18)
(0.824572 1.1771 1.70393e-19)
(0.276546 0.13707 -6.63317e-21)
(0.999905 -0.000301436 0)
(0.0505726 0.846518 0)
(0.0220161 0.661845 0)
(0.73145 -0.013182 0)
(0.0114792 2.93016 0)
(0.00300763 2.79472 0)
(-0.020203 3.15345 3.30605e-19)
(-0.00769737 1.85465 -6.91339e-21)
(0.345884 0.0396747 4.33896e-19)
(0.19485 1.20004 1.1732e-19)
(0.961978 0.00388444 0)
(0.00956024 0.620717 0)
(0.0628113 0.171759 -3.15463e-19)
(1.00217 -0.00520161 0)
(1.00077 -0.010152 0)
(0.975976 -0.00653176 0)
(0.580846 -0.0256192 0)
(0.0180167 2.6382 0)
(-0.0148487 2.91013 3.94193e-19)
(0.00308654 0.877585 0)
(0.01287 1.09264 0)
(-0.00120016 0.854464 0)
(-0.0168938 2.60815 0)
(0.000962473 2.07954 -1.08906e-20)
(-0.014106 1.8273 0)
(-0.020461 2.98751 -4.02668e-23)
(-0.0169845 3.0054 8.87142e-19)
(0.00201685 3.00016 0)
(0.870651 -0.00872897 0)
(0.437321 0.972802 8.46181e-20)
(0.796432 1.19575 -1.74647e-19)
(0.942052 1.03125 1.99805e-19)
(0.66741 1.29326 -3.89361e-20)
(0.671737 1.2786 2.28507e-19)
(0.318776 0.215469 6.46757e-21)
(0.289259 0.109305 0)
(1.12461 0.569353 0)
(0.287851 0.205011 2.95593e-20)
(0.244797 0.138735 -3.0692e-20)
(0.919562 -0.00726999 0)
(1.00028 0.000155054 0)
(0.999916 0.000341243 0)
(1.00351 -0.00767547 0)
(1.00096 -0.000945759 0)
(1.00019 2.31871e-05 0)
(0.0633656 1.79855 -3.45315e-19)
(0.0225427 1.02706 0)
(0.0753739 0.906027 0)
(0.009598 0.975746 0)
(0.0293354 0.790865 0)
(0.020423 1.99068 0)
(0.0187865 0.859403 0)
(0.0132568 0.691613 0)
(0.0164354 0.836423 0)
(0.00374771 0.635781 0)
(0.838063 -0.0143836 0)
(0.848065 0.0280316 0)
(0.766163 -0.00291827 0)
(0.820134 0.0374064 0)
(0.699336 -0.0138377 0)
(0.015331 3.00066 4.06157e-19)
(0.0117103 3.00832 0)
(0.00651498 3.00256 0)
(0.014136 2.99719 4.56736e-24)
(0.00836974 2.95853 -6.13839e-19)
(0.0151958 2.98189 0)
(0.0111913 2.90367 0)
(0.0255668 2.9304 9.06393e-25)
(0.00499216 2.82471 0)
(0.0312391 2.91603 0)
(-0.0051413 2.7452 0)
(0.303981 3.5464 0)
(-0.145907 3.62345 0)
(0.135258 3.24543 -3.05164e-19)
(-0.0106625 2.98403 0)
(-0.00581809 2.05443 0)
(-0.0139761 2.1346 6.81719e-21)
(0.00416533 1.87672 -1.13633e-20)
(0.44731 0.137544 -1.50097e-19)
(0.338748 0.0274631 -1.44716e-19)
(0.431601 0.158321 -4.52035e-19)
(0.329984 0.0591988 -2.98777e-19)
(0.189554 0.948931 0)
(0.230383 1.33602 -1.39204e-19)
(0.371552 1.29121 2.36416e-19)
(0.987349 0.00823146 0)
(0.941288 0.00545629 0)
(1.00031 0.000429949 0)
(1.00326 0.00949494 0)
(1.00287 0.00785119 -1.16324e-18)
(0.991774 0.00988964 8.88223e-19)
(-0.00759548 0.808157 0)
(0.00882206 0.622729 0)
(-0.00738929 0.909183 0)
(-0.000196232 0.800621 0)
(-0.0137122 0.6079 0)
(0.10676 0.178438 9.77858e-20)
(0.161281 0.157787 0)
(0.99336 -0.00825279 0)
(0.954476 -0.00615301 0)
(0.768292 0.0445485 0)
(0.70509 0.0564376 0)
(0.661311 -0.0234693 0)
(0.961337 -0.00571657 0)
(0.616543 0.0800829 0)
(0.441904 0.00172795 6.38205e-19)
(-0.0367339 2.86467 2.95162e-19)
(0.0424834 2.90894 0)
(0.0545492 2.88476 0)
(-0.00405416 2.69849 0)
(-0.0138967 2.98501 3.73001e-19)
(-0.0181479 2.89502 0)
(-0.0159047 2.98801 -1.15888e-18)
(-0.0132419 2.92533 3.97893e-19)
(0.0429658 1.32914 0)
(0.0647595 1.38562 0)
(-0.00176701 2.10469 3.00518e-23)
(-0.000487773 2.06338 0)
(-0.0217466 1.83167 0)
(0.938019 -0.00768867 0)
(0.856888 -0.00813646 0)
(0.862678 0.00583412 0)
(0.949134 -0.00792082 0)
(0.883628 -0.00734084 0)
(0.546264 1.16733 -1.07629e-19)
(0.595994 1.20655 0)
(0.404745 0.925277 1.54486e-20)
(0.344215 0.779275 0)
(0.905571 1.06862 -5.32842e-20)
(1.01211 0.873378 1.07088e-19)
(0.363351 1.37855 0)
(0.524365 1.35705 0)
(0.528804 1.309 0)
(0.121854 0.208602 -1.29147e-19)
(0.355059 0.208243 0)
(0.318247 0.0970416 8.4468e-20)
(0.988127 0.927861 0)
(1.05717 0.781344 0)
(1.07865 0.722135 -8.0434e-20)
(1.10487 0.624872 0)
(1.14993 0.407861 2.3446e-20)
(0.957623 -0.00852938 0)
(0.96234 -0.0102601 0)
(0.901949 -0.0073826 0)
(0.984342 -0.0091913 0)
(0.974822 -0.00934825 0)
(0.93743 -0.00598319 0)
(1.00017 0.00214868 0)
(1.00086 0.0014252 0)
(0.999869 0.000909901 0)
(0.02764 2.06237 1.89265e-19)
(0.0992931 1.75052 0)
(0.0134961 2.17243 2.98635e-19)
(0.044724 1.8544 -2.52486e-19)
(0.100375 1.21474 -9.56409e-20)
(0.043589 1.09659 0)
(0.117459 1.05078 0)
(0.00524785 0.928667 0)
(0.0138693 0.74757 0)
(-0.00533628 2.22549 -5.67302e-22)
(0.0243904 1.99144 0)
(-0.00591054 2.22535 -2.73135e-20)
(0.0275014 1.99021 5.04855e-20)
(0.00507908 0.905239 0)
(0.0155578 0.880743 0)
(0.0132879 0.714822 0)
(0.00330471 0.825434 0)
(0.0048706 0.62272 0)
(0.935257 0.00924633 0)
(0.843772 -0.0154862 0)
(0.925562 -0.00105423 0)
(0.839315 -0.0118192 0)
(0.811131 0.000856519 0)
(0.901304 0.0196915 0)
(0.878078 0.0236876 0)
(0.78795 -0.000589723 0)
(0.00430374 3.0645 -3.59542e-21)
(0.0168063 3.05757 0)
(0.0153508 2.969 0)
(0.00899491 2.87626 0)
(0.962229 3.98303 0)
(1.30688 3.24612 4.48609e-19)
(0.0694815 3.07668 0)
(-0.0238334 2.90778 0)
(0.0501726 1.44781 0)
(0.00330162 1.77417 0)
(0.0410908 1.63621 0)
(-0.0289842 2.5641 4.84467e-22)
(-0.0159513 2.2585 0)
(-0.0251474 2.40695 0)
(0.0180411 1.9143 -1.56246e-21)
(-0.00898066 2.2037 1.48468e-20)
(-0.0143771 2.16856 1.15569e-20)
(0.00507457 1.89314 0)
(0.474804 0.118474 2.25373e-19)
(0.36166 0.0111961 -2.21342e-19)
(0.271842 1.57194 0)
(0.247289 0.73611 -1.29012e-19)
(0.177395 1.66359 -4.27088e-19)
(0.203691 1.20379 4.28067e-19)
(0.901679 0.00588608 0)
(0.967342 0.0107345 0)
(0.974408 0.0106835 0)
(0.923185 0.00593979 0)
(-0.00619584 0.809578 0)
(-0.00535684 0.808758 0)
(-0.00673098 0.623665 0)
(0.24928 0.199343 2.72634e-19)
(0.209616 0.184602 -3.23085e-19)
(0.210772 0.149772 0)
(1.08339 0.0824794 1.2626e-20)
(1.06273 0.0366084 0)
(1.00153 0.0385356 0)
(0.897711 -0.00643197 0)
(0.503925 0.0953454 0)
(0.542658 0.0813583 -1.02157e-18)
(0.394889 0.00735165 3.82758e-19)
(0.00919483 2.98191 3.13879e-19)
(-0.0322259 2.86757 1.99746e-20)
(0.00179464 3.04963 -7.59805e-21)
(0.0208593 3.04317 2.80231e-19)
(-0.0153506 2.9963 1.30518e-20)
(-0.012746 2.94947 -5.26143e-23)
(-0.0175537 3.0115 -2.39649e-19)
(0.0142136 3.02306 1.72499e-19)
(0.0067122 3.03673 -2.80004e-19)
(0.932512 -0.00234855 0)
(0.938699 -0.00327684 0)
(0.843615 -0.00764586 0)
(0.956415 0.0115412 0)
(0.94274 0.01289 0)
(0.881168 0.00547452 0)
(0.917795 0.0159603 0)
(0.926261 0.01471 0)
(0.838238 0.00315134 0)
(0.760481 1.43331 1.9394e-20)
(0.803224 1.52502 0)
(0.217898 0.352335 3.19047e-20)
(0.247967 0.716309 2.54743e-19)
(0.2912 0.769991 -1.52558e-19)
(0.303646 0.557907 2.96567e-19)
(0.338136 0.814977 6.72305e-19)
(0.136452 0.238647 1.5313e-19)
(0.403289 0.181621 3.16574e-19)
(0.382151 0.198718 8.23939e-20)
(0.330585 0.0750686 1.57783e-19)
(1.14282 0.464508 4.88505e-21)
(1.15572 0.263097 2.63719e-21)
(0.00625117 2.22342 1.16803e-19)
(0.0441023 1.92271 0)
(0.963702 0.0299655 0)
(0.937833 0.0122585 0)
(0.864209 -0.018027 0)
(0.0111991 3.07416 0)
(0.0205637 2.94403 5.11036e-19)
(0.0171663 2.9562 0)
(0.00674237 2.85053 -5.09304e-19)
(0.00584719 3.09177 1.20933e-19)
(0.00578307 3.08198 0)
(0.888215 1.82861 -6.73343e-20)
(1.27179 2.37932 1.13747e-19)
(0.868497 1.93254 -4.72892e-19)
(0.0202014 2.98181 -2.73511e-19)
(0.0362554 3.00231 0)
(-0.0327472 2.88014 0)
(-0.0108165 2.20131 -6.54063e-21)
(-0.00576565 2.22718 -2.58651e-20)
(0.0256833 1.95313 -4.15652e-21)
(0.278008 1.38797 4.21542e-19)
(0.201264 0.53204 -2.86957e-19)
(0.0526523 1.98943 3.23017e-19)
(0.153499 1.88258 -3.87328e-19)
(0.149722 1.48017 4.06396e-20)
(0.00486377 3.11777 -7.1763e-19)
(0.0138359 3.11824 8.08643e-19)
(-0.00978863 2.98034 3.44689e-19)
(-0.00405088 2.97759 -3.27645e-19)
(-0.0218093 2.88171 -3.51247e-19)
(0.00759551 3.09813 -9.00581e-19)
(0.0006978 3.1063 9.10464e-19)
(0.29271 0.727681 0)
(0.259258 0.726482 -5.26793e-19)
(0.111524 0.247666 2.34674e-19)
(0.353487 0.936186 4.56237e-19)
(0.184449 0.278126 -7.03941e-19)
(1.15987 0.172429 3.4217e-20)
(1.15876 0.312218 0)
(1.14505 0.123695 -1.16859e-20)
(-0.00245317 2.23959 -8.39644e-22)
(6.44379e-06 2.23298 0)
(0.0273843 1.96121 0)
(0.351546 1.29208 -1.50995e-19)
(0.377055 1.13162 -3.28128e-19)
(0.188366 0.369759 5.83545e-19)
(1.00553 -0.0111814 0)
(1.00751 -0.00744 2.16072e-19)
(0.0389904 1.3048 0)
(0.0111307 1.25163 0)
(1.00198 0.00344704 7.97176e-22)
(1.0038 0.0100413 4.37084e-19)
(-0.0202211 2.54851 -6.37513e-22)
(-0.0264331 2.58878 0)
(0.0342225 3.17584 1.94991e-19)
(0.387649 3.48068 0)
(1.16318 0.6408 -3.24356e-20)
(1.01323 0.0135702 -7.66977e-22)
(1.02122 -0.0107246 0)
(1.00175 0.000107801 2.62829e-23)
(0.100898 1.34978 0)
(0.154627 2.57247 0)
(0.0280852 1.28411 0)
(0.00398586 2.63025 2.87685e-20)
(-0.020804 2.58748 1.5615e-20)
(1.0021 0.0291152 9.74321e-22)
(1.06174 0.00317153 0)
(1.09286 0.0217217 0)
(0.0013887 1.79964 0)
(-0.0275261 2.58948 0)
(0.0106118 1.27949 0)
(0.309104 1.46432 -5.78477e-20)
(1.01124 -0.00989293 0)
(1.00939 -0.0153674 0)
(1.0024 0.000631774 2.74423e-19)
(1.00538 -0.00478584 -3.25789e-19)
(1.0012 -0.00105267 0)
(0.0162239 1.51944 0)
(0.0386348 1.38993 0)
(0.0418492 1.47363 0)
(0.0210462 1.26807 0)
(0.0208481 1.21886 0)
(0.0178243 1.19901 0)
(1.03424 -0.00707711 0)
(1.02091 0.0161699 -3.65414e-22)
(0.805625 1.25448 8.69625e-20)
(1.00222 0.00038079 -2.73734e-19)
(1.00401 0.0053409 3.2549e-19)
(1.00117 0.00212427 0)
(1.01344 0.0105475 2.71616e-19)
(1.00856 0.00868681 -3.289e-19)
(1.00927 0.0156789 0)
(-0.0292712 2.6178 0)
(-0.0281896 2.59759 -2.1482e-21)
(-0.0294649 2.61085 2.4367e-21)
(1.22857 0.245563 2.69041e-19)
(1.15543 0.0791353 0)
(0.0440343 3.07483 -4.18464e-19)
(0.065117 2.8528 -2.98585e-20)
(0.142222 3.19594 6.36816e-19)
(0.140574 3.22524 -8.83216e-20)
(0.13269 3.23688 0)
(0.0193881 3.1364 1.11213e-19)
(0.0752898 3.16155 4.08192e-19)
(0.0686642 3.18542 -2.11587e-19)
(0.0230546 3.12902 0)
(0.654079 0.290277 0)
(0.569566 0.341331 0)
(1.10648 0.669866 8.01225e-20)
(1.13377 0.802365 -8.22614e-20)
(1.1783 0.552104 0)
(1.22576 0.49665 0)
(1.01634 0.0136564 -5.12957e-19)
(1.01512 0.0148304 6.42964e-19)
(1.02513 -0.0101566 0)
(1.02315 -0.0124011 0)
(1.00639 0.00257873 0)
(1.01014 0.00360974 0)
(1.00463 0.00186316 0)
(1.00982 0.00604543 0)
(1.00805 0.00630806 0)
(1.00443 0.00443386 0)
(0.0888766 1.34518 0)
(0.0862409 1.31778 0)
(0.121278 1.38306 0)
(0.14119 1.39603 0)
(0.148423 2.59587 0)
(0.188796 2.65914 -1.94235e-19)
(0.100508 2.65379 0)
(0.0922611 2.65542 9.57844e-20)
(0.0435587 2.68637 -8.09315e-20)
(0.0295887 1.30312 0)
(0.0180074 1.2386 0)
(0.02719 1.31508 0)
(0.0257738 1.25391 0)
(0.00196404 1.98196 -1.44222e-20)
(-0.0212735 2.61591 9.39439e-21)
(-0.0106847 2.6728 2.48412e-20)
(-0.0166487 2.69099 0)
(-0.024588 2.62233 -3.43172e-20)
(-0.0241758 2.61604 -1.63332e-20)
(0.01272 1.98234 1.23607e-20)
(-0.0122517 2.4082 -1.21592e-20)
(-0.0154275 2.42793 -2.9525e-20)
(1.01176 0.0366264 5.1576e-19)
(1.00746 0.0171691 -6.41384e-19)
(1.00308 0.0429879 -5.1946e-19)
(0.982664 0.0237555 6.59599e-19)
(1.06289 0.00738457 0)
(1.0483 -0.00893503 0)
(1.09186 0.0305947 0)
(1.07241 0.0113685 0)
(1.07043 0.000160927 0)
(1.13277 0.0805154 0)
(1.10735 0.0414333 0)
(1.11248 0.0274304 0)
(-0.0194185 2.44577 -1.37175e-21)
(-0.0145872 2.01888 0)
(-0.0123415 2.23172 0)
(-0.0274468 2.61151 2.55593e-21)
(-0.0231158 2.62047 -2.70052e-22)
(-0.000690372 1.57654 9.8801e-21)
(0.0161352 1.53798 -9.93363e-21)
(0.0138627 1.39011 0)
(0.0254704 1.4043 0)
(0.0282845 1.4012 0)
(-0.00355337 1.28581 0)
(0.00978073 1.2095 0)
(0.378304 1.48286 9.15655e-20)
(0.428819 1.48452 5.19262e-20)
(0.59346 2.43726 -1.03053e-19)
(0.404145 2.53561 3.01307e-19)
(0.346437 2.06649 3.39796e-20)
(1.0211 -0.00816925 0)
(1.01545 -0.00989868 0)
(1.01496 -0.0160827 0)
(1.00735 -0.00126095 0)
(1.00493 -0.00106038 0)
(1.00771 -0.00465324 0)
(1.00918 -0.00376482 0)
(1.01408 -0.00450164 0)
(1.02158 0.0162543 5.03964e-19)
(1.01824 0.0162173 -6.40089e-19)
(1.02189 0.0181636 -5.04498e-19)
(1.01974 0.0169164 6.33585e-19)
(0.770807 1.30585 0)
(0.710204 1.35747 8.36857e-20)
(0.873486 1.21475 2.59679e-20)
(0.933191 1.15332 -3.45326e-20)
(1.15705 2.6035 1.38074e-19)
(0.811331 0.112633 2.50274e-19)
(1.15085 0.107898 0)
(1.20441 0.188854 -2.15602e-19)
(1.19617 0.141776 -9.12826e-21)
(1.00197 0.144687 0)
(0.157566 2.96091 2.22773e-19)
(0.113808 2.86829 -5.59694e-19)
(0.0285331 2.38109 3.48514e-19)
(0.0956213 -0.0074818 -1.48497e-19)
(0.336504 3.42313 -8.14978e-20)
(0.197628 3.32062 0)
(0.228936 3.35505 1.06062e-19)
(0.255782 3.0412 -7.2615e-19)
(0.359373 3.20185 0)
(0.00580552 3.12063 2.12056e-20)
(0.0165907 3.12901 -2.52412e-19)
(0.0147208 3.12488 3.70183e-19)
(0.0346306 3.13997 0)
(0.0329244 3.15004 0)
(1.19155 2.64309 0)
(0.545971 0.839606 -2.20027e-19)
(1.05874 0.975482 1.12235e-20)
(0.963676 1.07046 0)
(0.815986 0.952303 -5.24235e-20)
(1.04705 0.881636 1.06574e-20)
(0.349777 0.394734 -3.96e-19)
(0.690575 0.320556 -8.26927e-21)
(0.656721 0.233157 1.79269e-19)
(0.582916 0.387438 1.32404e-20)
(0.500092 0.338299 -5.34486e-19)
(0.662593 0.341013 0)
(0.711196 0.418327 3.02507e-19)
(0.71764 0.414381 0)
(0.618965 0.37629 0)
(0.593527 0.284164 0)
(0.800858 0.608927 1.81388e-19)
(1.21599 0.274798 -2.31927e-19)
(1.22069 0.404138 0)
(1.2439 0.342191 0)
(0.740248 0.189185 2.66715e-19)
(0.851289 0.538904 -1.66318e-19)
(0.749257 0.509917 2.95228e-19)
(0.954189 0.420406 -3.23929e-19)
(1.02003 0.0148142 3.43141e-19)
(1.01814 0.0144096 -3.45421e-19)
(1.01591 0.0162795 0)
(1.03581 -0.00637199 0)
(1.02956 -0.00879246 -3.23804e-19)
(1.02741 -0.0126937 3.21245e-19)
(1.02502 0.00984664 0)
(1.02382 0.0132418 0)
(1.01121 0.00398201 0)
(1.01431 0.00890616 0)
(1.01473 0.00408294 0)
(1.01386 0.00296996 0)
(0.0556376 1.32708 0)
(0.0612086 1.28598 0)
(0.143639 1.35241 -1.6104e-20)
(0.276707 1.46251 2.9655e-20)
(0.166264 1.43194 6.28357e-20)
(0.205932 1.44258 -1.02466e-19)
(0.166813 1.37624 0)
(0.131613 1.59281 -4.09297e-20)
(0.111329 1.56001 0)
(0.349181 2.01354 -4.91079e-20)
(0.349729 2.36009 2.63121e-19)
(0.191766 1.44582 3.57899e-20)
(0.252635 1.37087 1.32174e-21)
(0.19956 1.35949 -1.06249e-21)
(0.261684 1.31806 -5.99958e-20)
(0.231118 1.57672 0)
(0.260256 1.60654 6.06605e-20)
(0.0328922 2.26784 -1.94591e-20)
(0.0440489 2.67506 0)
(0.0646751 2.40641 7.55117e-20)
(0.0598437 2.43024 0)
(0.0719413 2.66701 -1.06571e-19)
(0.0541436 2.7025 0)
(0.0309201 1.39794 -6.66829e-21)
(0.0363388 1.44989 0)
(0.0328844 1.36814 0)
(0.0283213 1.36865 7.50691e-21)
(0.000411737 2.65909 -9.2669e-21)
(0.0300756 2.70286 9.27518e-20)
(0.0124285 2.72751 6.93607e-22)
(0.00326046 1.83011 1.1701e-20)
(-0.00463181 1.67493 5.64931e-21)
(0.0311807 1.28573 0)
(0.0219837 1.21847 0)
(0.0525329 1.56402 1.15868e-20)
(0.0291193 1.43485 1.04129e-20)
(0.0404849 1.50127 -1.27701e-20)
(0.0411428 1.58877 0)
(-0.0325577 2.28739 2.11748e-20)
(-0.0413571 2.56132 -1.05076e-20)
(-0.0133047 2.45826 -2.06164e-21)
(-0.00548822 1.84866 -1.41377e-20)
(-0.027625 2.50695 -5.533e-21)
(-0.0231307 2.4528 2.19433e-20)
(1.01987 0.0210242 -3.40895e-19)
(1.01612 0.0265758 3.42669e-19)
(1.01514 0.0167132 0)
(1.01174 0.0688397 4.77135e-19)
(0.991012 0.058628 -5.35225e-19)
(0.951078 0.0404881 6.00047e-19)
(1.01476 0.102856 -6.37119e-20)
(1.0419 -0.00618673 0)
(1.0501 -0.00193208 3.10661e-19)
(1.03843 -0.0105081 -3.09979e-19)
(1.06953 0.0410598 -1.8362e-20)
(1.06323 0.021362 1.58114e-19)
(1.06383 0.0516179 0)
(1.05169 0.0473617 -5.67357e-20)
(1.0332 0.0405825 0)
(1.0263 0.0366679 0)
(1.02754 0.013441 0)
(1.02416 0.0160009 0)
(1.03961 0.0312226 1.16575e-19)
(1.03916 0.0256487 -2.57065e-19)
(1.04943 0.0311081 -1.24192e-19)
(1.04905 0.0311333 -1.36507e-19)
(1.06796 0.0615223 2.67153e-19)
(1.09171 0.0498958 0)
(1.10265 0.0919735 0)
(-0.0300774 2.28718 1.20952e-21)
(-0.0190255 2.02488 -2.19543e-21)
(-0.0255161 2.02349 0)
(-0.0280662 2.4563 -1.25803e-21)
(-0.0132346 2.41236 3.40587e-21)
(-0.0333583 2.4881 -4.85406e-23)
(-0.0226685 2.62802 1.36769e-20)
(-0.0297649 2.57074 -1.32479e-21)
(-0.0231623 2.52264 4.89873e-21)
(-0.0206586 2.62386 -6.31057e-21)
(-0.0258198 2.62438 8.31156e-21)
(-0.0125691 1.48606 -2.33327e-22)
(0.00891592 1.61728 8.70511e-21)
(0.360888 1.42368 -3.5795e-20)
(0.35879 1.36935 3.01673e-20)
(0.652129 1.40947 -8.08745e-20)
(0.521492 1.47516 -5.03077e-20)
(0.583589 1.44396 0)
(0.582045 2.41501 9.75008e-20)
(0.653973 2.41239 1.47904e-19)
(0.404233 2.51235 3.69754e-20)
(0.406795 2.54643 -2.68572e-19)
(0.520355 2.49512 2.60893e-19)
(0.543046 2.45333 0)
(0.479701 2.50912 -2.4323e-19)
(0.237846 2.5852 5.11347e-19)
(0.34739 2.56526 -3.42436e-20)
(0.281623 2.64864 -6.94594e-19)
(0.931989 2.37572 3.30447e-19)
(0.826346 2.38243 0)
(1.01091 0.000226642 1.10623e-20)
(1.01522 -0.00549891 -9.16513e-21)
(1.01756 -0.00350719 -1.65141e-19)
(1.01482 -0.000931678 1.6693e-19)
(1.01218 0.000983318 0)
(0.63576 1.27445 0)
(0.6452 1.17054 0)
(0.746352 1.07469 0)
(0.644944 1.12822 0)
(1.18519 2.61394 2.68291e-20)
(1.07202 2.36176 0)
(0.851518 2.18143 1.71796e-21)
(0.821235 2.44616 0)
(0.921462 2.53805 -1.82719e-19)
(0.958768 2.49781 1.18706e-19)
(0.815459 0.163295 0)
(0.784275 0.13536 6.78664e-20)
(0.925363 0.142312 3.99039e-19)
(0.837879 0.138013 -1.48413e-19)
(0.816876 0.0850612 -4.58763e-19)
(1.07123 0.225745 -4.01953e-19)
(0.997484 0.291292 -6.304e-21)
(0.923367 0.277186 3.70304e-19)
(1.00277 0.216546 3.10997e-19)
(0.954347 0.182616 -5.30672e-19)
(0.921691 0.186487 6.61454e-20)
(0.951239 0.240364 -1.42239e-19)
(0.933794 0.209097 0)
(0.992102 0.178703 2.6181e-19)
(1.04373 0.180382 0)
(1.04134 0.209222 0)
(1.09939 0.115983 1.2571e-19)
(1.07327 0.170205 -5.94596e-21)
(1.06889 0.226484 -6.75738e-20)
(1.10219 0.197939 0)
(1.02226 0.0443451 2.64328e-19)
(1.04299 0.0565876 3.27399e-19)
(1.035 0.0431482 -2.59576e-19)
(1.04306 0.063445 -2.19959e-19)
(1.01831 0.0710101 -3.36579e-19)
(0.988694 0.149555 0)
(1.00089 0.100892 0)
(0.969599 0.0662246 -2.13157e-19)
(0.918735 0.0867426 8.31618e-20)
(1.03812 0.098836 3.04654e-19)
(1.06805 0.115594 -3.60765e-19)
(1.07345 0.146741 3.18945e-19)
(1.02831 0.141368 0)
(1.07162 0.105914 0)
(1.05581 0.0847169 -1.46859e-19)
(1.04496 0.0929445 -2.49128e-19)
(0.576565 1.07942 6.37725e-20)
(0.622063 1.39209 -2.77847e-20)
(1.16051 2.73997 -1.02468e-19)
(1.23749 3.07562 7.84837e-23)
(1.24953 2.71164 -7.26619e-20)
(1.28031 2.70958 -2.76663e-20)
(1.16663 2.35266 8.28664e-21)
(1.22601 2.9695 -6.08616e-20)
(1.24736 2.93847 1.29931e-19)
(1.24297 3.23108 -7.74463e-20)
(1.36549 2.96714 8.93091e-20)
(1.30333 2.89152 0)
(0.551438 0.844388 -2.09683e-20)
(0.114835 1.24625 2.54774e-19)
(0.553426 0.448881 2.58944e-19)
(0.362894 0.190548 2.80472e-19)
(0.522446 0.385298 3.02936e-19)
(0.555541 0.466561 -4.98249e-19)
(0.547185 0.483691 4.08043e-19)
(0.491872 0.398997 -1.54315e-19)
(0.408549 0.325141 3.47508e-19)
(0.741601 0.249338 -1.52378e-19)
(0.70774 0.278429 0)
(0.688567 0.203373 3.56956e-21)
(0.734902 0.512722 1.58888e-19)
(0.710106 0.476996 -5.81291e-19)
(0.611219 0.475618 5.2795e-21)
(0.625755 0.460248 0)
(0.669484 0.732458 1.71901e-19)
(0.838364 0.77964 1.69702e-19)
(0.752406 0.860831 -1.97655e-19)
(0.873141 0.806106 -6.88688e-20)
(0.897257 0.838531 -1.82291e-20)
(0.903446 0.840347 1.87272e-20)
(0.850846 0.637043 -3.02319e-19)
(0.920382 0.708923 6.41842e-20)
(0.972992 0.714724 0)
(0.956352 0.682104 -9.12938e-20)
(1.02404 0.312937 9.37727e-20)
(1.12138 0.28458 1.35124e-19)
(1.05873 0.259675 1.61131e-19)
(1.01798 0.35544 -1.89269e-19)
(1.05789 0.417331 0)
(1.098 0.400409 0)
(0.916212 0.345744 3.00106e-21)
(0.842713 0.283332 0)
(0.877293 0.279703 1.73024e-19)
(0.913001 0.283389 -3.19092e-21)
(0.943878 0.421403 9.03582e-19)
(0.902097 0.48411 2.35994e-19)
(0.904164 0.447136 -2.50085e-19)
(0.819955 0.430435 2.68251e-19)
(0.805202 0.430767 1.61198e-19)
(0.771923 0.414711 -1.56936e-19)
(1.02728 -0.000359261 2.73455e-19)
(1.01989 -8.03319e-05 0)
(1.0185 0.00077473 1.80608e-19)
(1.02125 -0.00210123 -4.07215e-19)
(1.02219 0.00437414 1.98256e-19)
(1.02045 0.0111817 -4.17128e-19)
(1.0215 0.0104808 0)
(1.02105 0.0104983 -8.61657e-20)
(1.01592 0.00777706 2.15835e-19)
(1.01685 0.0102949 -1.0919e-19)
(1.01753 0.0095812 8.03908e-20)
(0.031038 1.30512 0)
(0.0342637 1.34142 0)
(0.0389368 1.30636 0)
(0.0385766 1.26627 0)
(0.0644657 1.36964 1.64441e-20)
(0.072391 1.33986 -1.28465e-21)
(0.117853 1.4947 -1.59907e-20)
(0.0891607 1.34903 9.1039e-21)
(0.0334337 1.43944 -2.22393e-20)
(0.0366984 1.43167 1.71175e-20)
(0.058609 1.35192 -1.3617e-21)
(0.0535781 1.35268 -8.01508e-21)
(0.0449596 1.32902 -1.32207e-21)
(0.0391347 1.35075 -2.28706e-21)
(0.109434 2.37518 -8.14503e-20)
(0.093182 2.42344 0)
(0.169713 2.06693 5.10984e-20)
(0.115043 1.70881 2.23891e-20)
(0.23526 2.05436 -4.10337e-20)
(0.20698 2.43991 0)
(0.27013 2.39387 -2.60215e-19)
(0.306588 2.39223 1.84027e-19)
(0.224036 2.00782 -1.19144e-19)
(0.152189 2.16934 7.9107e-20)
(0.153795 2.28557 0)
(0.0167333 1.87704 -2.25437e-20)
(-0.00118693 2.40586 -4.46816e-20)
(0.00535479 2.15736 0)
(0.0124944 2.46498 -5.68076e-21)
(0.0262968 2.31006 1.59542e-20)
(0.0226907 1.38318 8.72978e-22)
(0.0199211 1.36984 -1.21788e-20)
(0.0207793 1.37432 2.62577e-21)
(0.0247594 1.37241 4.90566e-21)
(0.0303593 1.40249 0)
(0.0166464 1.35645 0)
(0.00412828 1.27528 3.84781e-21)
(0.0144847 1.34424 -1.62752e-21)
(0.0160402 1.34626 0)
(0.0137733 1.27636 1.87502e-21)
(0.0121508 1.20178 -4.21081e-21)
(1.03962 0.010424 0)
(1.04551 0.00699206 -2.89307e-20)
(1.03853 0.0203626 -2.07374e-19)
(1.04767 0.0192709 0)
(1.05114 0.0190696 0)
(1.03652 0.0107497 -2.78413e-21)
(1.0313 0.0103505 3.33917e-19)
(1.03175 0.0159258 4.08472e-19)
(1.02568 0.0200688 0)
(1.02332 0.0203946 0)
(1.03498 0.0246816 2.07685e-19)
(1.02661 0.0256523 0)
(1.02471 0.025533 0)
(-0.0277489 2.0259 0)
(0.009489 1.6486 -3.59315e-21)
(0.00106905 1.76655 -1.2409e-20)
(0.00659873 1.35949 0)
(-0.0100266 1.555 4.35523e-21)
(0.00171523 1.44738 -3.34885e-21)
(0.00717817 1.36986 0)
(0.379121 1.67448 0)
(0.363754 1.29172 -5.65952e-20)
(0.308387 1.34015 0)
(0.418421 1.28755 3.52668e-20)
(0.466944 1.45375 0)
(0.446516 1.39922 -3.86011e-21)
(1.03018 2.68378 -7.05274e-21)
(0.957639 2.41072 -4.03823e-19)
(0.906067 2.19186 4.62726e-19)
(0.839354 2.37475 1.1417e-19)
(0.839517 2.49804 0)
(0.912001 2.49175 0)
(0.914551 2.37038 0)
(0.893601 2.35628 -4.17323e-19)
(0.684241 2.46137 -1.78186e-19)
(0.79545 2.45765 -4.29352e-20)
(0.807485 2.42734 3.40121e-20)
(0.685654 2.38876 0)
(0.791422 2.38759 0)
(0.746846 2.39749 -1.59127e-19)
(0.764277 2.49312 0)
(0.615617 1.10549 0)
(0.484714 0.922473 -2.12961e-19)
(0.565354 0.949671 -1.37713e-20)
(0.524232 1.05254 0)
(0.527423 1.00423 3.22425e-19)
(0.775362 0.887805 -5.76141e-20)
(0.780047 1.0101 0)
(0.753364 0.957135 8.67375e-20)
(0.638331 1.04238 0)
(0.647045 0.945989 0)
(1.16568 2.75564 -1.08545e-19)
(1.14263 2.82102 -5.06436e-20)
(0.938497 2.33495 6.08171e-20)
(0.899262 2.31379 -4.06618e-20)
(1.12837 2.72629 0)
(1.08072 2.69478 5.12443e-20)
(1.08761 2.47854 -1.41861e-19)
(0.979217 2.23224 -1.37592e-20)
(0.492701 1.35309 0)
(0.502135 1.07047 -5.5887e-20)
(0.559715 1.14629 0)
(0.864901 0.222545 0)
(0.788539 0.175677 0)
(0.729589 0.137213 0)
(0.860239 0.225885 -2.73459e-19)
(0.759773 0.212141 1.60306e-19)
(0.933656 0.0739961 -1.7279e-19)
(0.949416 0.121472 0)
(0.927067 0.130586 7.39278e-20)
(0.867111 0.108501 2.97674e-19)
(0.84243 0.0690168 -1.86802e-19)
(1.17338 3.3658 -3.0433e-19)
(1.22489 3.2874 0)
(1.13904 3.38358 -5.98415e-19)
(0.638784 3.54178 5.23091e-19)
(0.850826 3.1077 1.78753e-20)
(0.51224 0.852262 2.56824e-19)
(0.419832 0.845611 0)
(0.326243 0.497663 -6.36345e-20)
(0.457885 0.679002 3.60163e-19)
(0.549711 0.461751 -8.84263e-20)
(0.521114 0.514261 9.98492e-20)
(0.659263 0.528207 2.17611e-19)
(0.693427 0.54547 0)
(0.651488 0.60675 0)
(0.606537 0.544195 0)
(0.979146 0.597118 4.67077e-20)
(0.904766 0.532602 -2.27844e-19)
(0.927699 0.56545 1.77992e-19)
(0.962292 0.504666 -1.77401e-19)
(1.07172 0.476806 0)
(1.06439 0.559418 -4.54823e-20)
(0.844435 0.38569 -3.65688e-19)
(0.84914 0.372954 -4.44633e-19)
(0.795847 0.374439 2.83612e-19)
(0.793558 0.350114 -2.89096e-19)
(0.842616 0.307305 -2.26672e-19)
(0.792793 0.306621 2.78922e-19)
(1.02665 0.0057214 -2.11935e-19)
(1.0263 0.00610721 4.39037e-19)
(1.02954 -0.000519583 2.65105e-19)
(1.03334 0.000661386 -3.20532e-19)
(1.03298 0.00741855 0)
(1.02996 0.00833812 -5.24898e-19)
(0.0636138 1.63651 1.25092e-20)
(0.0446713 1.56619 0)
(0.0888939 1.68538 8.99976e-20)
(0.0976374 1.66861 -8.04677e-20)
(0.0901235 1.51347 2.98721e-20)
(0.0874419 1.49794 0)
(0.0125671 1.67889 0)
(-0.00179973 1.4812 -3.25253e-21)
(0.00143436 1.42203 2.92125e-21)
(-0.00595291 1.54412 2.28552e-21)
(0.00121817 1.88467 -6.07134e-21)
(-0.0158149 1.93512 4.48419e-21)
(0.493573 1.3702 -1.25033e-19)
(0.488449 1.37694 1.34565e-19)
(0.442421 1.28596 -2.76164e-20)
(0.430676 1.28746 4.04493e-21)
(0.623704 1.29645 0)
(0.543319 1.38401 2.86378e-20)
(0.559962 1.39552 -2.77864e-20)
(0.453356 1.27224 2.67898e-20)
(0.507417 1.22934 0)
(0.552424 1.19074 0)
(0.645895 2.41904 2.67406e-19)
(0.669407 2.46108 5.4005e-19)
(0.708294 2.47509 -3.70471e-19)
(0.607464 2.45638 -8.73257e-20)
(0.561593 2.54274 1.25966e-19)
(0.523111 2.52396 -3.25161e-19)
(0.973068 2.37662 -2.57749e-19)
(1.00951 2.38728 0)
(0.916 2.17074 -3.00917e-19)
(1.05098 2.6752 0)
(1.05398 2.66178 0)
(0.605481 2.25298 -7.3486e-20)
(1.02945 3.15729 4.34418e-20)
(0.897188 3.01647 1.3401e-20)
(0.285658 0.907218 0)
(0.324998 0.749526 -1.3523e-19)
(0.466186 0.718507 -1.3555e-19)
(0.401391 1.98015 0)
(0.478955 2.78522 -1.26548e-20)
(0.434686 2.56864 0)
(0.684264 0.670037 -3.62926e-19)
(0.770213 0.683775 4.89522e-19)
(0.797973 0.618636 -4.80971e-19)
(0.675161 0.635501 -4.6881e-20)
(0.724437 0.592578 -1.92675e-19)
(1.0141 2.76342 -3.28084e-20)
(1.04649 2.83315 -5.6007e-20)
(0.656518 2.13697 2.97755e-19)
(0.584028 1.71454 -2.05892e-19)
(0.711023 1.90685 -1.8076e-19)
(0.996192 2.46825 -4.60015e-20)
(0.997601 2.45602 1.13167e-19)
(0.668499 1.87298 1.01631e-20)
(0.460588 1.33607 6.56526e-20)
)
;

boundaryField
{
    wall-4
    {
        type            noSlip;
    }
    velocity-inlet-5
    {
        type            fixedValue;
        value           uniform (1 0 0);
    }
    velocity-inlet-6
    {
        type            fixedValue;
        value           uniform (0 3 0);
    }
    pressure-outlet-7
    {
        type            zeroGradient;
    }
    wall-8
    {
        type            noSlip;
    }
    frontAndBackPlanes
    {
        type            empty;
    }
}


// ************************************************************************* //
