/*--------------------------------*- C++ -*----------------------------------*\
| =========                 |                                                 |
| \\      /  F ield         | OpenFOAM: The Open Source CFD Toolbox           |
|  \\    /   O peration     | Version:  4.0                                   |
|   \\  /    A nd           | Web:      www.OpenFOAM.org                      |
|    \\/     M anipulation  |                                                 |
\*---------------------------------------------------------------------------*/
FoamFile
{
    version     2.0;
    format      ascii;
    class       volScalarField;
    location    "56";
    object      p;
}
// * * * * * * * * * * * * * * * * * * * * * * * * * * * * * * * * * * * * * //

dimensions      [0 2 -2 0 0 0 0];

internalField   nonuniform List<scalar> 
918
(
0.556782
1.18741
0.0012093
0.5562
-0.0124112
1.15444
-0.50711
0.682114
0.536968
-0.107695
-0.0419878
0.536015
1.01504
0.780744
-1.12503
-0.00855418
0.652371
-0.384036
0.536056
-0.0524279
0.707262
0.543519
0.546546
0.537126
0.602136
0.756921
0.896024
0.0215953
0.00894323
0.00475228
-0.0122574
-0.0396181
-0.0331936
1.03808
1.08917
1.11187
0.504855
0.332067
-0.372882
-0.44352
-0.434964
-0.545056
0.677432
0.675534
-0.203168
0.685081
0.688496
0.524034
0.536335
0.537242
0.538279
0.537255
0.538639
0.405113
-0.110781
-0.142971
-0.0878915
-0.0790921
0.0571461
-0.042612
-0.0451006
-0.0400864
-0.0401079
0.454285
0.53041
0.527343
0.541308
0.551764
1.12696
1.09888
1.12503
1.0387
1.0552
0.993025
0.965719
0.801624
0.823581
0.766374
0.754651
-1.55831
-2.5122
-0.533816
-0.282427
-0.0104239
-0.00599053
0.000432459
0.648617
0.649165
0.652175
0.65618
1.08047
-0.381538
-0.480706
0.536195
0.535001
0.543338
0.544037
0.540055
0.539146
-0.042174
-0.0378946
-0.0461245
-0.0484894
-0.0483506
0.696327
0.696277
0.537658
0.534665
0.558788
0.579791
0.571634
0.279381
0.609429
0.624147
0.587211
0.750237
0.743335
0.752442
0.869448
0.833355
0.933194
0.956259
0.0168757
0.000418166
-0.0132935
-0.0189064
-0.0170314
0.500707
0.493285
0.520446
0.508273
0.510766
0.248377
0.114466
0.417377
0.442528
-0.290508
-0.354472
-0.430651
-0.459577
-0.567493
0.611148
0.67028
0.667186
-0.216055
-0.143415
-0.275264
-0.0696923
-0.131837
0.514328
0.521319
0.51633
0.531851
0.526325
0.528285
0.540597
0.537669
0.539228
0.467524
0.591328
0.331337
0.29633
-0.246557
-0.160452
-0.247394
-0.0665809
-0.06188
0.070883
0.096179
0.0442501
0.0326624
-0.0557414
-0.0476063
-0.0512939
-0.0390484
-0.0372498
0.447084
0.435951
0.466935
0.474454
0.518962
0.520321
0.524337
0.522508
0.91644
0.938732
0.946431
0.920266
-3.50452
-6.29126
0.0432129
0.179931
-0.00612822
-0.008432
0.00254263
-0.00559267
0.000962238
-0.00181519
-0.00319453
-0.00457496
3.42235e-05
0.00186977
0.642009
0.642798
1.00161
1.00705
0.978686
0.930937
0.524378
0.52646
0.531973
0.527848
-0.0371639
-0.0376006
-0.0375905
0.690757
0.694801
0.69344
0.241279
0.152263
0.330008
0.358853
0.635491
0.623964
0.633974
0.647038
0.68389
0.963681
0.981972
0.980143
0.988616
1.03267
1.04908
1.01445
0.480248
0.490179
0.485156
0.523564
0.521329
0.522236
0.518014
0.519354
0.517283
-0.0364198
-0.41739
0.490922
0.508558
0.49219
0.495827
0.69106
0.769192
0.656798
0.662547
0.66092
-0.00122046
-0.0595552
0.252046
0.218517
0.386955
0.423203
0.402249
0.887675
0.848198
0.898288
0.871478
0.832955
0.858281
-0.369034
-1.87194
-0.989248
0.53021
0.344127
0.431405
0.0145313
-0.00251641
0.00210247
1.00033
1.07402
0.647175
0.820965
0.82447
0.721796
0.751174
0.806865
0.733434
0.76722
0.801439
0.781613
0.5676
0.504272
0.519848
0.838309
0.893964
0.122975
0.0627876
0.0187781
0.11472
0.171587
0.145909
1.03485
0.948095
1.01856
0.534424
0.535138
-0.00309086
-0.0171927
0.539358
0.539411
-0.011108
0.000178592
0.414719
-0.833372
0.104933
0.527917
0.517899
0.534984
-0.0904041
0.356915
-0.0424711
0.051643
-0.00388449
0.532262
0.465316
0.42471
0.00392232
-0.0170295
-0.0432035
-0.216384
0.532094
0.5304
0.53445
0.535401
0.536076
-0.0155171
-0.0113844
-0.00845504
-0.0413611
-0.0369132
-0.0463497
0.49903
0.517815
-0.169626
0.534593
0.536724
0.536543
0.529786
0.535425
0.53367
-0.00711414
-0.013274
-0.0154798
0.222767
0.352245
0.655138
0.743099
0.62659
0.401914
0.166306
0.557791
0.621397
0.526812
0.680863
0.666471
0.68174
0.170301
0.0200194
0.17888
0.120009
0.525775
0.524476
0.516154
0.513136
0.529846
0.527955
0.532518
0.529526
0.532478
0.533866
-0.0483458
-0.0729399
-0.0855095
-0.154429
0.311571
0.573452
0.254391
0.284907
0.14453
-0.0375921
-0.0383698
-0.0416716
-0.047934
0.00512309
-0.0186611
0.0466494
0.0474273
0.0197626
-0.0066505
-0.0025978
-0.0134297
-0.0100408
0.525282
0.523899
0.52987
0.539004
0.474914
0.478689
0.443735
0.464355
0.449674
0.388698
0.423883
0.399072
-0.00252633
0.00728008
0.000186998
-0.0141437
-0.0109196
-0.0287001
-0.025678
-0.0218719
-0.0174516
-0.0243876
-0.0384814
-0.0397364
-0.173767
-0.288521
0.98843
0.91155
0.133675
0.521255
0.5277
0.524468
0.52936
0.532489
0.533298
0.531018
0.527572
0.518178
0.519731
0.516516
0.517357
-0.101884
-0.242478
-0.070357
-0.142777
0.143254
0.627154
0.364184
0.300875
0.29579
0.523187
0.920363
0.705745
0.680752
0.692163
-0.342817
0.0481865
-0.27831
0.33829
0.16434
0.653848
0.703379
0.725134
0.673005
0.625937
-0.104666
0.554508
-0.0682885
-0.0175605
0.182636
0.0620996
0.67712
0.651552
0.655082
0.672232
0.688459
0.657931
0.642646
0.637566
0.66835
0.67078
0.489856
0.2537
0.205123
0.166655
0.642566
0.525417
0.578966
0.49522
0.520946
0.523568
0.522196
0.503842
0.511399
0.506944
0.513417
0.51688
0.525559
0.526007
0.521313
0.523447
-0.053069
-0.0566605
-0.0294427
-0.138613
-0.131185
-0.193709
-0.0640964
0.0743338
0.0352208
0.235333
0.340774
0.0517618
-0.0594946
-0.0322929
0.00908334
0.178983
0.205388
0.0762116
0.164513
0.153842
0.136768
0.238381
0.242618
-0.023079
-0.0269168
-0.0293141
-0.0316255
0.0227364
0.0928571
0.102731
4.0627e-05
-0.00601032
-0.0352615
-0.0349206
-0.0195623
-0.024002
-0.0204915
0.0132185
-0.0481835
-0.0157784
-0.00124873
0.00322129
0.000545355
-0.00507063
0.517524
0.519981
0.519537
0.525661
0.543605
0.558762
0.517503
0.497037
0.487862
0.490866
0.463847
0.474153
0.46983
0.483569
0.504714
0.514337
0.511557
0.51436
0.496846
0.498532
0.485024
0.488746
0.46355
0.444569
0.432722
-0.0374974
0.00122374
-0.00698738
-0.0332427
-0.00371394
-0.0159847
-0.00597053
0.0133992
-0.00275967
-0.00524511
-0.0159428
-0.0209656
-0.0203995
-0.0751176
0.010831
-0.183986
-0.220496
-0.292455
0.890163
1.01422
0.81052
0.583637
0.602623
0.84595
0.93075
0.544311
0.735661
0.759273
0.586184
0.852813
0.526083
0.525687
0.523287
0.522766
0.523983
-0.00759693
0.0978938
0.0979747
0.159697
0.275229
0.387377
0.317242
0.192569
0.323118
0.325789
0.619383
0.631655
0.587193
0.61143
0.611086
0.426236
0.502151
0.554319
0.512274
0.564627
0.585653
0.540873
0.573292
0.523479
0.478182
0.474081
0.42493
0.444539
0.42081
0.403786
0.515773
0.493096
0.503659
0.493891
0.513032
0.539337
0.53482
0.563074
0.575848
0.497485
0.453137
0.46245
0.492835
0.453765
0.468834
0.485217
0.230475
0.131925
0.214542
-0.0727568
0.00078523
-0.0126617
-0.0608077
-0.0109733
0.273798
-0.419208
-0.395209
-1.02387
0.500323
0.954782
0.620353
0.593119
0.68567
0.667737
0.672448
0.68889
0.692658
0.631269
0.644647
0.647759
0.610572
0.632838
0.651908
0.64911
0.524624
0.387088
0.384449
0.334745
0.204921
0.243605
0.442917
0.365752
0.290417
0.291191
0.459201
0.346161
0.415264
0.450482
0.381943
0.336202
0.53929
0.604169
0.596568
0.571145
0.485818
0.499262
0.523196
0.557646
0.583367
0.613977
0.512885
0.518785
0.520022
0.517509
0.514771
0.517809
0.518035
0.520577
0.521251
0.524231
0.523271
-0.0426779
-0.0306444
-0.0439538
-0.0521112
-0.0191366
-0.0223476
0.0205119
0.00637868
-0.00981405
-0.00393348
-0.0294413
-0.0337668
-0.0290593
-0.0200955
0.0997327
0.112256
0.0955066
0.055968
0.248895
0.378915
0.453157
0.328381
0.221069
0.244326
0.264702
-0.0103931
0.0166902
0.0035783
0.0427312
0.0343644
-0.0301642
-0.033586
-0.0311457
-0.0243574
-0.0154599
-0.0313654
-0.0336496
-0.0251124
-0.0298798
-0.0310884
-0.0341602
0.499295
0.492783
0.494501
0.488325
0.487035
0.501392
0.505625
0.507615
0.513104
0.515449
0.505456
0.511297
0.515134
-0.00611
-0.0288113
-0.0328666
-0.021317
-0.0240985
-0.0222991
-0.0241202
0.122251
0.0510352
0.0558209
0.0083482
-0.122741
-0.0650604
0.49017
0.489483
0.479755
0.719831
0.569191
0.48976
0.586985
0.692542
0.274511
0.471827
0.306407
0.88753
0.783459
0.929904
0.541301
0.243057
0.404244
0.449628
0.261331
0.33574
0.32628
0.214737
0.245865
0.282284
0.381822
0.263805
0.240086
-0.00250683
0.187596
0.300178
0.28202
0.407229
0.46852
0.264245
0.184362
0.139109
0.604845
0.624025
0.638593
0.610763
0.631969
0.57723
0.567651
0.584911
0.593846
0.588793
-0.751814
-0.458377
-1.40447
-0.724618
-0.270983
0.530594
0.499821
0.766722
0.647493
0.691346
0.676829
0.63606
0.604593
0.625435
0.650782
0.347186
0.458537
0.433698
0.438741
0.340456
0.271587
0.569879
0.565564
0.598926
0.622393
0.593667
0.62361
0.510702
0.510411
0.509896
0.506162
0.504436
0.506777
0.0592341
0.027918
0.0641885
0.0446676
0.0214607
0.00976409
-0.00212559
-0.0117911
-0.0187859
-0.0190102
-0.0061523
-0.00207299
0.169487
0.108114
0.0277228
0.0578981
-0.00310618
-0.0721992
-0.0902348
0.0131389
0.109238
0.0995736
0.404019
0.654097
0.474072
0.641463
0.483413
0.539187
0.468492
0.460027
0.48571
0.378564
0.458911
0.241001
-0.265892
-0.174846
0.789427
0.802259
0.580125
0.402023
0.17083
0.352368
0.544467
0.47645
0.512943
0.581858
0.570315
0.0220891
0.0825324
0.361333
0.588463
0.237321
0.228377
0.222282
0.403557
0.323604
)
;

boundaryField
{
    wall-4
    {
        type            zeroGradient;
    }
    velocity-inlet-5
    {
        type            zeroGradient;
    }
    velocity-inlet-6
    {
        type            zeroGradient;
    }
    pressure-outlet-7
    {
        type            fixedValue;
        value           uniform 0;
    }
    wall-8
    {
        type            zeroGradient;
    }
    frontAndBackPlanes
    {
        type            empty;
    }
}


// ************************************************************************* //
