/*--------------------------------*- C++ -*----------------------------------*\
| =========                 |                                                 |
| \\      /  F ield         | OpenFOAM: The Open Source CFD Toolbox           |
|  \\    /   O peration     | Version:  4.0                                   |
|   \\  /    A nd           | Web:      www.OpenFOAM.org                      |
|    \\/     M anipulation  |                                                 |
\*---------------------------------------------------------------------------*/
FoamFile
{
    version     2.0;
    format      ascii;
    class       volVectorField;
    location    "56";
    object      U;
}
// * * * * * * * * * * * * * * * * * * * * * * * * * * * * * * * * * * * * * //

dimensions      [0 1 -1 0 0 0 0];

internalField   nonuniform List<vector> 
918
(
(0.985161 -0.000505498 0)
(0.00501484 2.96625 0)
(0.00918045 0.885175 0)
(0.979704 0.0021467 0)
(-0.0101503 2.06551 3.79918e-20)
(-0.00704652 2.9488 -2.47129e-18)
(0.815197 1.15719 4.46197e-19)
(0.174102 0.0909194 -1.5168e-20)
(0.999909 -0.000278361 0)
(0.0599664 0.754875 0)
(0.0107521 0.551842 0)
(0.73528 -0.018777 0)
(0.0110912 2.9304 0)
(0.00259711 2.79507 0)
(-0.0177242 3.15073 7.80543e-19)
(-0.0213699 1.90908 6.84259e-21)
(0.280689 0.038838 1.01911e-18)
(0.185307 1.1373 3.19632e-19)
(0.96274 0.00501929 0)
(0.00928247 0.505565 0)
(0.00433975 0.120893 -7.11782e-19)
(1.00197 -0.00497692 0)
(1.00022 -0.00978696 0)
(0.975734 -0.00643918 0)
(0.594244 0.000168948 0)
(0.0151465 2.64138 0)
(-0.0148915 2.91001 9.09526e-19)
(0.0117443 0.938847 0)
(-0.0129321 1.18127 0)
(0.0137357 0.920265 0)
(-0.0106602 2.59768 0)
(0.0012213 2.11809 -3.03434e-20)
(-0.00965913 1.89366 0)
(-0.0206114 2.9876 -8.88358e-23)
(-0.0166871 3.00529 1.92065e-18)
(0.00209919 3.00018 0)
(0.871173 -0.00962205 0)
(0.403642 0.934958 1.79258e-19)
(0.80045 1.17161 -5.0902e-19)
(0.951194 1.01782 5.5065e-19)
(0.669417 1.2628 -1.03535e-19)
(0.670663 1.2364 5.9593e-19)
(0.210296 0.150439 1.47977e-20)
(0.187561 0.0658739 0)
(1.15165 0.55928 0)
(0.182624 0.13995 6.74433e-20)
(0.14884 0.0882146 -6.99819e-20)
(0.919866 -0.00745412 0)
(1.00027 0.000158219 0)
(0.999909 0.000336704 0)
(1.00363 -0.00776313 0)
(1.00096 -0.000922026 0)
(1.00017 3.47958e-05 0)
(0.0739467 1.82287 -7.74586e-19)
(0.0268029 0.960577 0)
(0.0945057 0.823702 0)
(0.0108313 0.916242 0)
(0.0354093 0.686748 0)
(0.00665387 2.00706 0)
(0.00121673 0.818209 0)
(0.0113273 0.57035 0)
(-0.00306754 0.813878 0)
(0.00958338 0.5357 0)
(0.840835 -0.0158086 0)
(0.841498 0.0315884 0)
(0.767613 -0.00785268 0)
(0.806743 0.0416779 0)
(0.704483 -0.0176663 0)
(0.0146859 3.00041 9.16099e-19)
(0.0114933 3.00802 0)
(0.00611396 3.00276 0)
(0.0135311 2.99735 1.03933e-23)
(0.007973 2.95849 -1.36155e-18)
(0.0144935 2.98207 0)
(0.0108569 2.90358 0)
(0.0243938 2.93096 2.08416e-24)
(0.004681 2.82487 0)
(0.0301051 2.9165 0)
(-0.0049308 2.74509 0)
(0.305984 3.54466 0)
(-0.131655 3.62551 0)
(0.138292 3.24089 -7.26371e-19)
(-0.0133217 2.97845 0)
(-0.021687 1.98234 0)
(-0.00578484 2.16494 -6.74886e-21)
(-0.0156575 1.91561 -2.14143e-22)
(0.368057 0.145583 -3.53711e-19)
(0.306284 0.0246328 -3.43142e-19)
(0.330365 0.154384 -1.05958e-18)
(0.248373 0.0464469 -6.91432e-19)
(0.227847 0.97804 0)
(0.268839 1.28396 -3.69486e-19)
(0.3628 1.2188 6.15847e-19)
(0.987447 0.00856647 0)
(0.941881 0.0058325 0)
(1.0003 0.000580002 0)
(1.00286 0.00930812 0)
(1.00301 0.00846857 -2.74285e-18)
(0.99191 0.00969657 2.07131e-18)
(-0.00341239 0.80377 0)
(0.00988754 0.518574 0)
(-0.0393131 1.00825 0)
(-0.0198821 0.840655 0)
(0.003549 0.501316 0)
(0.0157492 0.129563 2.19779e-19)
(0.0917123 0.100643 0)
(0.993549 -0.00837412 0)
(0.954451 -0.00652684 0)
(0.750204 0.0453543 0)
(0.685079 0.0410497 0)
(0.663632 -0.0178189 0)
(0.96842 -0.00781557 0)
(0.596619 0.0692412 0)
(0.443973 -0.0143182 1.53909e-18)
(-0.0374026 2.8618 6.72216e-19)
(0.0412983 2.90962 0)
(0.0534456 2.88611 0)
(-0.00436241 2.70027 0)
(-0.0132428 2.98526 8.60914e-19)
(-0.0178362 2.8951 0)
(-0.0153561 2.98809 -2.66995e-18)
(-0.0133323 2.92519 9.13945e-19)
(-0.0217122 1.34654 0)
(0.00184536 1.3755 0)
(-0.00573974 2.13027 4.29711e-22)
(-0.00448896 2.09415 0)
(-0.0229633 1.89829 0)
(0.938434 -0.00745338 0)
(0.8572 -0.00993747 0)
(0.863309 0.00583188 0)
(0.949489 -0.0078709 0)
(0.883948 -0.00817292 0)
(0.515254 1.12807 -2.2645e-19)
(0.56439 1.17914 0)
(0.368233 0.879941 3.35356e-20)
(0.310701 0.738748 0)
(0.912328 1.05515 -1.51742e-19)
(1.02902 0.865343 3.06712e-19)
(0.356506 1.3451 0)
(0.522449 1.31755 0)
(0.545625 1.25508 0)
(0.120197 0.185154 -3.01827e-19)
(0.235947 0.144846 0)
(0.210599 0.0727077 1.94005e-19)
(1.00006 0.919666 0)
(1.07294 0.774044 0)
(1.09804 0.715536 -2.41718e-19)
(1.13106 0.618745 0)
(1.18187 0.403018 5.66677e-20)
(0.957695 -0.00874023 0)
(0.962477 -0.0100545 0)
(0.901687 -0.0079742 0)
(0.984195 -0.00915429 0)
(0.974694 -0.00934717 0)
(0.937115 -0.00636926 0)
(1.00019 0.00233885 0)
(1.0009 0.00141023 0)
(0.99991 0.00085446 0)
(0.0352289 2.07318 4.29238e-19)
(0.119225 1.76593 0)
(0.0176117 2.18739 6.60206e-19)
(0.0467031 1.87651 -5.51376e-19)
(0.101155 1.14644 -2.61853e-19)
(0.0432342 1.03463 0)
(0.140054 0.978587 0)
(0.00492064 0.876406 0)
(0.0171281 0.634438 0)
(-0.00138893 2.23942 -8.75049e-22)
(0.0160074 2.01206 0)
(-0.0020894 2.24083 -3.35001e-20)
(0.00804751 2.01535 5.39215e-20)
(0.00217736 0.852574 0)
(0.00177773 0.831883 0)
(0.0116632 0.59597 0)
(-0.00670745 0.812533 0)
(0.00350482 0.52491 0)
(0.937678 0.00961165 0)
(0.849166 -0.0148658 0)
(0.927064 0.000273194 0)
(0.841956 -0.0129448 0)
(0.812084 -0.000873031 0)
(0.899753 0.0212912 0)
(0.874227 0.0262479 0)
(0.788752 -0.00385694 0)
(0.0057476 3.0649 -8.54139e-21)
(0.0167279 3.05774 0)
(0.0147164 2.96903 0)
(0.00869503 2.87619 0)
(0.92198 3.95816 0)
(1.23571 3.29155 9.28662e-19)
(0.0694262 3.07059 0)
(-0.0288886 2.90296 0)
(-0.00583118 1.39546 0)
(-0.0286993 1.69166 0)
(-0.0139195 1.52811 0)
(-0.0273947 2.55512 -7.51183e-21)
(-0.0101578 2.24007 0)
(-0.0158993 2.39102 0)
(-0.00116854 1.94101 9.02431e-22)
(-0.00291617 2.23638 -3.30724e-21)
(-0.0046103 2.19879 6.61334e-23)
(-0.00930031 1.92667 0)
(0.416136 0.127069 5.38955e-19)
(0.354457 0.013565 -5.28902e-19)
(0.259261 1.58478 0)
(0.275987 0.751405 -3.15159e-19)
(0.176993 1.67154 -1.04912e-18)
(0.226169 1.21585 1.05147e-18)
(0.902073 0.00640257 0)
(0.967424 0.0111052 0)
(0.97456 0.010801 0)
(0.923336 0.00642567 0)
(-0.000888612 0.806528 0)
(-0.00508869 0.804164 0)
(-0.000198342 0.520188 0)
(0.158384 0.129793 6.234e-19)
(0.132739 0.11831 -7.35208e-19)
(0.122753 0.0901945 0)
(1.09538 0.0852387 2.72551e-20)
(1.07758 0.0388675 0)
(1.01077 0.0395324 0)
(0.905339 -0.00594723 0)
(0.463888 0.106674 0)
(0.521276 0.0877689 -2.45879e-18)
(0.397942 0.00880932 9.19169e-19)
(0.00881526 2.98106 7.21475e-19)
(-0.0324046 2.86565 4.71669e-20)
(0.00359403 3.05024 -1.80823e-20)
(0.0202217 3.04336 6.43185e-19)
(-0.0150163 2.99658 3.00132e-20)
(-0.012932 2.94947 -1.20794e-22)
(-0.0172503 3.01194 -5.55539e-19)
(0.0148409 3.02386 4.01961e-19)
(0.0073606 3.03678 -6.36496e-19)
(0.933646 -0.00133706 0)
(0.939232 -0.00329219 0)
(0.845574 -0.00946467 0)
(0.956578 0.0118658 0)
(0.942751 0.0131819 0)
(0.88163 0.005917 0)
(0.917115 0.0171774 0)
(0.926007 0.0149938 0)
(0.838534 0.00253464 0)
(0.717786 1.40553 4.22983e-20)
(0.751097 1.51428 0)
(0.18346 0.318089 7.06739e-20)
(0.226608 0.667875 5.69601e-19)
(0.262355 0.721277 -3.32324e-19)
(0.264493 0.525625 6.60847e-19)
(0.344268 0.808513 1.58831e-18)
(0.139264 0.229332 3.74724e-19)
(0.294341 0.15655 7.32864e-19)
(0.263965 0.153679 1.90513e-19)
(0.226165 0.0601869 3.61978e-19)
(1.1711 0.461085 5.78159e-20)
(1.18756 0.254978 5.32575e-20)
(0.00973434 2.23538 2.54892e-19)
(0.0408295 1.94363 0)
(0.969171 0.0290552 0)
(0.942227 0.0137159 0)
(0.86768 -0.0180365 0)
(0.0112024 3.07415 0)
(0.0196173 2.9441 1.1776e-18)
(0.016426 2.95624 0)
(0.00644557 2.85058 -1.16798e-18)
(0.00638344 3.09132 2.85721e-19)
(0.00721456 3.08268 0)
(0.783992 1.81603 -1.59907e-19)
(1.24359 2.4921 4.07266e-19)
(0.766005 1.95542 -1.2342e-18)
(0.0196787 2.98037 -6.22136e-19)
(0.0353957 2.99951 0)
(-0.03446 2.87667 0)
(-0.00407955 2.21979 -1.31363e-20)
(-0.00288674 2.241 2.70354e-21)
(0.00145751 1.97644 -7.35263e-21)
(0.277702 1.39319 1.02423e-18)
(0.236222 0.54412 -7.02416e-19)
(0.0635371 1.99795 7.6405e-19)
(0.135367 1.88447 -9.11204e-19)
(0.180308 1.50809 9.44197e-20)
(0.00324249 3.11805 -1.78202e-18)
(0.0169699 3.11803 1.91004e-18)
(-0.00917573 2.9808 7.91647e-19)
(-0.00336785 2.97723 -7.48375e-19)
(-0.0212971 2.8813 -8.0627e-19)
(0.00866577 3.09884 -2.12375e-18)
(0.00191621 3.10687 2.07282e-18)
(0.280879 0.694485 0)
(0.247813 0.683913 -1.18218e-18)
(0.0960279 0.225637 5.2497e-19)
(0.356208 0.934849 1.1105e-18)
(0.19433 0.274741 -1.71212e-18)
(1.18055 0.173695 6.42824e-20)
(1.1881 0.309445 0)
(1.16891 0.121771 -8.33268e-21)
(0.000996598 2.25205 -1.51594e-21)
(0.00437309 2.24436 0)
(0.0249494 1.97864 0)
(0.340065 1.30217 -3.68036e-19)
(0.373459 1.14646 -7.9906e-19)
(0.20876 0.375564 1.42416e-18)
(1.00588 -0.0108389 0)
(1.00767 -0.00763979 5.06038e-19)
(-0.0179434 1.3264 0)
(-0.0322435 1.3232 0)
(1.00222 0.0035093 1.80847e-21)
(1.00366 0.00946054 1.03313e-18)
(-0.0155048 2.53902 9.51909e-21)
(-0.0214973 2.5822 0)
(0.0348254 3.1773 4.11476e-19)
(0.391761 3.4857 0)
(1.16981 0.659294 -5.98855e-20)
(1.01287 0.0131216 -2.1402e-21)
(1.02131 -0.0103259 0)
(1.0017 0.00012097 7.61472e-23)
(0.103405 1.36168 0)
(0.143974 2.5744 0)
(0.0259567 1.30425 0)
(-0.0013974 2.6249 3.12624e-20)
(-0.0225814 2.58127 7.04464e-21)
(0.99947 0.0291547 2.40293e-21)
(1.06272 0.00440397 0)
(1.09671 0.0245435 0)
(-0.0270317 1.73494 0)
(-0.0182491 2.58198 0)
(-0.0029104 1.30761 0)
(0.307562 1.47627 -1.70796e-19)
(1.01129 -0.00962724 0)
(1.0094 -0.0149212 0)
(1.00236 0.000741558 6.46626e-19)
(1.00547 -0.00480885 -7.60076e-19)
(1.00118 -0.000975313 0)
(-0.0127452 1.46037 0)
(-0.00545739 1.37258 0)
(-0.00521169 1.41845 0)
(-0.00694104 1.29598 0)
(-0.0129766 1.28424 0)
(-0.00447176 1.26543 0)
(1.03491 -0.00615214 0)
(1.01993 0.0156287 -8.59389e-22)
(0.820234 1.27 2.58566e-19)
(1.00224 0.000304934 -6.44347e-19)
(1.00406 0.00525421 7.5417e-19)
(1.00118 0.00207041 0)
(1.01275 0.0103398 6.41065e-19)
(1.008 0.00830491 -7.76749e-19)
(1.00856 0.0146919 0)
(-0.022448 2.60991 0)
(-0.0235963 2.5895 -1.59664e-20)
(-0.0214749 2.60367 1.14909e-20)
(1.2345 0.265144 5.86565e-19)
(1.16066 0.0862044 0)
(0.0412765 3.0779 -9.1884e-19)
(0.0647439 2.85601 -6.68929e-20)
(0.139348 3.19231 1.40555e-18)
(0.134863 3.22021 -1.99363e-19)
(0.133729 3.23141 0)
(0.01938 3.13723 2.37157e-19)
(0.0748754 3.16028 9.06183e-19)
(0.06783 3.18532 -4.47047e-19)
(0.0218259 3.13006 0)
(0.605385 0.277084 0)
(0.528613 0.308929 0)
(1.14046 0.695628 1.38228e-19)
(1.13537 0.816989 -1.24357e-19)
(1.19756 0.581993 0)
(1.22626 0.517029 0)
(1.01608 0.0133528 -1.19497e-18)
(1.01498 0.0142731 1.49998e-18)
(1.02533 -0.00984696 0)
(1.02339 -0.0118791 0)
(1.00642 0.00259931 0)
(1.01042 0.00372156 0)
(1.00459 0.00185185 0)
(1.0098 0.00622774 0)
(1.00782 0.00596092 0)
(1.00451 0.00469879 0)
(0.0926008 1.35942 0)
(0.0876092 1.32718 0)
(0.124968 1.39748 0)
(0.140462 1.40364 0)
(0.145363 2.59933 0)
(0.185516 2.66874 -4.24468e-19)
(0.100946 2.65508 0)
(0.0846923 2.65752 1.9881e-19)
(0.0378392 2.67964 -1.51909e-19)
(0.0173448 1.31877 0)
(0.0211758 1.24557 0)
(0.0208404 1.32881 0)
(0.034247 1.26777 0)
(0.00183519 1.98354 -3.69607e-22)
(-0.0212678 2.60914 -1.43709e-20)
(-0.00965101 2.66644 1.74599e-20)
(-0.0195481 2.68462 0)
(-0.0239744 2.61476 -1.35465e-20)
(-0.024293 2.60951 7.88421e-21)
(0.0107577 1.9821 2.84344e-21)
(-0.00811558 2.39735 1.92814e-20)
(-0.0143544 2.41926 -1.9801e-20)
(1.00973 0.0379199 1.21921e-18)
(1.00512 0.0160154 -1.50863e-18)
(1.00132 0.0455017 -1.22537e-18)
(0.976635 0.0250023 1.55815e-18)
(1.06395 0.00820356 0)
(1.04915 -0.00836469 0)
(1.09389 0.0345645 0)
(1.07396 0.0126395 0)
(1.07173 0.00037672 0)
(1.13977 0.0823683 0)
(1.11113 0.0440381 0)
(1.11467 0.0319413 0)
(-0.0228059 2.42998 5.2668e-22)
(-0.0129446 2.00735 0)
(-0.0135178 2.21248 0)
(-0.0199312 2.6028 -8.85149e-21)
(-0.0175903 2.61279 1.15885e-22)
(0.00333525 1.5698 -3.11942e-20)
(-0.00421212 1.49892 3.17605e-20)
(-0.0133283 1.38794 0)
(-0.0168376 1.39492 0)
(-0.0213532 1.39001 0)
(-0.00290585 1.30814 0)
(0.00789734 1.23602 0)
(0.385965 1.4932 2.78582e-19)
(0.429106 1.4934 1.45819e-19)
(0.598029 2.44814 -2.39934e-19)
(0.399668 2.54522 7.06303e-19)
(0.351698 2.05913 7.05986e-20)
(1.02104 -0.0081424 0)
(1.01549 -0.00976178 0)
(1.01491 -0.015507 0)
(1.0074 -0.00110441 0)
(1.00493 -0.00092251 0)
(1.00778 -0.00470665 0)
(1.00927 -0.00363793 0)
(1.01421 -0.00440663 0)
(1.02068 0.0162559 1.17041e-18)
(1.01777 0.0155887 -1.49767e-18)
(1.02101 0.0182508 -1.17942e-18)
(1.01873 0.0166872 1.47584e-18)
(0.783496 1.32096 0)
(0.721005 1.36997 2.45948e-19)
(0.89425 1.22172 9.60074e-20)
(0.940012 1.1662 -1.27738e-19)
(1.15566 2.60195 2.74361e-19)
(0.776816 0.11998 5.99307e-19)
(1.16268 0.10777 0)
(1.21068 0.192698 -4.71735e-19)
(1.1974 0.154359 -2.00306e-20)
(1.00583 0.155118 0)
(0.130772 2.95895 5.35474e-19)
(0.107502 2.86507 -1.16568e-18)
(0.0167481 2.37509 7.80899e-19)
(0.091956 -0.114469 -3.39448e-19)
(0.336746 3.41555 -2.1475e-19)
(0.191898 3.3096 0)
(0.235273 3.35049 2.7968e-19)
(0.240928 3.03164 -1.78569e-18)
(0.334566 3.19009 0)
(0.00552819 3.12118 4.62264e-20)
(0.0158667 3.12979 -5.45197e-19)
(0.0139455 3.12584 8.02413e-19)
(0.0344937 3.14007 0)
(0.032934 3.15024 0)
(1.21201 2.59993 0)
(0.542486 0.812454 -5.28321e-19)
(1.06236 0.990542 -5.35195e-21)
(0.996498 1.07607 0)
(0.850282 0.97279 -1.10576e-19)
(1.08631 0.891825 2.82162e-20)
(0.33112 0.351888 -8.76349e-19)
(0.667645 0.317306 -1.81389e-20)
(0.595834 0.220491 4.13745e-19)
(0.554712 0.344972 3.05389e-20)
(0.451165 0.294712 -1.22735e-18)
(0.630869 0.322261 0)
(0.702866 0.419954 7.04894e-19)
(0.710365 0.421431 0)
(0.591275 0.341438 0)
(0.535054 0.251691 0)
(0.815524 0.619534 4.15566e-19)
(1.23554 0.287528 -4.94384e-19)
(1.23513 0.426062 0)
(1.24342 0.366263 0)
(0.706818 0.193592 6.20568e-19)
(0.86453 0.548148 -3.82166e-19)
(0.76263 0.517842 6.78339e-19)
(0.958543 0.439312 -7.4456e-19)
(1.01936 0.0148862 8.0311e-19)
(1.01766 0.0143118 -8.08207e-19)
(1.01591 0.0154248 0)
(1.03637 -0.00568743 0)
(1.02982 -0.00842927 -7.56968e-19)
(1.02786 -0.0120057 7.49446e-19)
(1.0249 0.0103307 0)
(1.02344 0.0140377 0)
(1.01142 0.00412707 0)
(1.01422 0.00911067 0)
(1.01514 0.00411287 0)
(1.01426 0.00286224 0)
(0.0621027 1.34344 0)
(0.0670223 1.29634 0)
(0.143077 1.37831 1.19157e-20)
(0.278311 1.47361 9.11322e-20)
(0.170158 1.44466 1.91754e-19)
(0.20307 1.45019 -3.12485e-19)
(0.166534 1.40374 0)
(0.134521 1.59949 -7.01578e-20)
(0.117157 1.57553 0)
(0.349203 2.01022 -1.02648e-19)
(0.343984 2.34439 6.14603e-19)
(0.191759 1.46005 6.11517e-20)
(0.264283 1.39288 2.45409e-20)
(0.200524 1.38213 -1.98933e-20)
(0.277106 1.33717 -9.96843e-20)
(0.24337 1.58174 0)
(0.266696 1.6198 1.09652e-19)
(0.0303666 2.26453 -2.94941e-20)
(0.0429215 2.66924 0)
(0.0657694 2.40142 1.34631e-19)
(0.0621585 2.42223 0)
(0.0689299 2.67118 -2.20299e-19)
(0.0484482 2.6992 0)
(0.0265322 1.42395 2.78538e-20)
(0.0334882 1.4756 0)
(0.0288567 1.39192 0)
(0.0238091 1.39553 -3.14288e-20)
(-0.000653035 2.65275 -1.72394e-20)
(0.028842 2.69824 1.70876e-19)
(0.00937643 2.72269 1.20874e-21)
(0.00194278 1.83284 1.32734e-21)
(-0.00382162 1.68494 -1.43663e-21)
(0.0152849 1.29795 0)
(0.0189394 1.22151 0)
(0.0461476 1.58372 -2.42415e-20)
(0.0292188 1.45766 -2.96885e-20)
(0.0360334 1.52239 3.74454e-20)
(0.0389674 1.60783 0)
(-0.0287486 2.26943 8.62207e-20)
(-0.0298753 2.54927 -3.57758e-20)
(-0.0164656 2.44646 2.71761e-21)
(-0.00427723 1.84954 -1.60838e-21)
(-0.0256435 2.49934 2.24284e-22)
(-0.0211551 2.44281 7.19759e-21)
(1.01886 0.0211293 -8.00869e-19)
(1.01465 0.0271889 8.03456e-19)
(1.01376 0.0166567 0)
(1.01169 0.0718883 1.12613e-18)
(0.99008 0.0597993 -1.26889e-18)
(0.947511 0.049582 1.41789e-18)
(1.01451 0.111739 -1.5019e-19)
(1.04275 -0.0056954 0)
(1.05107 -0.00136669 7.21954e-19)
(1.03904 -0.00984059 -7.23458e-19)
(1.07133 0.0424526 -4.294e-20)
(1.06461 0.0237534 3.70265e-19)
(1.06322 0.0561888 0)
(1.05356 0.0499416 -1.33166e-19)
(1.03256 0.0429748 0)
(1.02535 0.0392691 0)
(1.02782 0.0133834 0)
(1.02393 0.0160581 0)
(1.03979 0.0323132 2.74334e-19)
(1.03911 0.0274186 -6.06518e-19)
(1.05105 0.0342069 -2.90678e-19)
(1.04818 0.0341769 -3.20252e-19)
(1.07128 0.0648315 6.24479e-19)
(1.09643 0.0523668 0)
(1.10515 0.0963263 0)
(-0.0244194 2.27439 4.80807e-20)
(-0.0225823 2.01612 1.88145e-22)
(-0.0191941 2.0227 0)
(-0.02564 2.44388 -4.78701e-20)
(-0.0195497 2.39936 -6.8644e-22)
(-0.0309818 2.47166 4.4947e-21)
(-0.0211702 2.62202 -7.45486e-21)
(-0.022649 2.56343 -2.90043e-22)
(-0.021614 2.51498 -1.54202e-21)
(-0.0158249 2.61576 8.06092e-21)
(-0.0212551 2.61779 -8.21705e-21)
(-0.00447991 1.48905 -4.00981e-22)
(0.00443166 1.61798 -2.80144e-20)
(0.370319 1.4439 -1.17854e-19)
(0.370548 1.38158 3.28967e-20)
(0.661224 1.4203 -2.3795e-19)
(0.528377 1.48624 -1.43185e-19)
(0.587275 1.45232 0)
(0.593793 2.42495 2.06737e-19)
(0.661839 2.4196 3.37432e-19)
(0.411616 2.51531 8.73688e-20)
(0.403139 2.53987 -6.09069e-19)
(0.511229 2.48153 6.11525e-19)
(0.553621 2.46192 0)
(0.488845 2.51953 -5.59238e-19)
(0.248656 2.5925 1.14547e-18)
(0.354995 2.56459 -7.81112e-20)
(0.284371 2.65416 -1.58739e-18)
(0.947788 2.37685 7.26072e-19)
(0.838287 2.3823 0)
(1.01105 0.000492848 2.62329e-20)
(1.01532 -0.00541288 -2.12833e-20)
(1.01766 -0.00353302 -3.88733e-19)
(1.01501 -0.000887254 3.90764e-19)
(1.01243 0.00120145 0)
(0.647082 1.28703 0)
(0.669617 1.18267 0)
(0.782268 1.10033 0)
(0.662135 1.14561 0)
(1.18555 2.6156 5.97966e-20)
(1.07389 2.36271 0)
(0.835743 2.1698 3.80846e-21)
(0.825001 2.43505 0)
(0.92256 2.52795 -4.20457e-19)
(0.957874 2.48402 2.79717e-19)
(0.803718 0.178265 0)
(0.753327 0.153624 1.62559e-19)
(0.913129 0.149776 9.46299e-19)
(0.827651 0.152229 -3.55198e-19)
(0.786036 0.0876055 -1.09277e-18)
(1.08104 0.238375 -8.94054e-19)
(0.998491 0.299141 -1.6617e-20)
(0.929263 0.302112 8.62942e-19)
(1.00782 0.230526 7.21741e-19)
(0.950167 0.195443 -1.25278e-18)
(0.913639 0.199804 1.56609e-19)
(0.953285 0.263868 -3.32572e-19)
(0.92883 0.225959 0)
(0.99436 0.191815 6.17646e-19)
(1.04694 0.192 0)
(1.04443 0.219831 0)
(1.10664 0.119785 2.90109e-19)
(1.07087 0.178989 -1.48123e-20)
(1.07493 0.238635 -1.57826e-19)
(1.10139 0.204966 0)
(1.02315 0.047113 6.18894e-19)
(1.03974 0.0597783 7.71442e-19)
(1.03397 0.0455305 -6.13611e-19)
(1.04297 0.0668281 -5.16981e-19)
(1.02007 0.0748256 -7.92377e-19)
(0.987235 0.16109 0)
(0.99604 0.106144 0)
(0.964567 0.0693495 -5.03959e-19)
(0.908635 0.0956504 1.98755e-19)
(1.03949 0.106527 7.14811e-19)
(1.06909 0.12316 -8.36707e-19)
(1.07488 0.15583 7.4696e-19)
(1.02999 0.146958 0)
(1.07473 0.111121 0)
(1.0548 0.0919379 -3.4266e-19)
(1.04357 0.0964387 -5.84418e-19)
(0.580089 1.06118 1.38779e-19)
(0.606772 1.38903 -4.02192e-20)
(1.15541 2.73153 -2.24907e-19)
(1.22129 3.07358 1.20177e-21)
(1.24737 2.7145 -1.19936e-19)
(1.2762 2.69797 -3.41894e-20)
(1.20392 2.33848 -1.08864e-20)
(1.20887 2.97749 -9.086e-20)
(1.22884 2.94288 2.30617e-19)
(1.21167 3.22664 -1.44376e-19)
(1.37165 2.95787 1.99542e-19)
(1.36086 2.87603 0)
(0.556699 0.820464 -5.00074e-20)
(0.117989 1.23402 5.70304e-19)
(0.547669 0.385127 5.70189e-19)
(0.386385 0.13215 6.23231e-19)
(0.490311 0.334048 6.94257e-19)
(0.541373 0.444668 -1.11802e-18)
(0.543763 0.442254 9.14263e-19)
(0.474053 0.342697 -3.47585e-19)
(0.365885 0.272982 7.89436e-19)
(0.723089 0.264018 -3.57778e-19)
(0.684385 0.287341 0)
(0.642568 0.206465 7.57712e-21)
(0.737651 0.506359 3.71025e-19)
(0.711435 0.477238 -1.35098e-18)
(0.616012 0.451336 1.26089e-20)
(0.618815 0.441573 0)
(0.685489 0.720185 3.97734e-19)
(0.846279 0.777014 3.97901e-19)
(0.771166 0.859647 -4.65551e-19)
(0.894093 0.815431 -1.56424e-19)
(0.926181 0.859738 -3.79208e-20)
(0.933318 0.86007 3.88291e-20)
(0.858546 0.655421 -6.88477e-19)
(0.939897 0.709696 1.4529e-19)
(1.00058 0.725984 0)
(0.991279 0.702375 -1.96883e-19)
(1.02783 0.338694 2.14124e-19)
(1.14671 0.303184 2.90502e-19)
(1.06848 0.275513 3.65575e-19)
(1.01613 0.371058 -4.33499e-19)
(1.06392 0.434586 0)
(1.11976 0.417871 0)
(0.922649 0.373136 2.98296e-21)
(0.841778 0.307458 0)
(0.884544 0.30533 4.06877e-19)
(0.91142 0.309642 -6.91864e-21)
(0.951939 0.442179 2.07445e-18)
(0.91095 0.498391 5.35141e-19)
(0.91647 0.464923 -5.69997e-19)
(0.835831 0.449607 6.10905e-19)
(0.818284 0.442363 3.66707e-19)
(0.787097 0.424746 -3.6066e-19)
(1.02734 -0.00029439 6.47491e-19)
(1.02 1.69407e-05 0)
(1.01852 0.000942415 4.22179e-19)
(1.02169 -0.00161077 -9.56344e-19)
(1.02234 0.00442511 4.64596e-19)
(1.02033 0.0114153 -9.72916e-19)
(1.02125 0.010787 0)
(1.02052 0.011012 -2.02772e-19)
(1.01595 0.00778889 5.087e-19)
(1.01664 0.0105642 -2.53823e-19)
(1.01734 0.00991209 1.86934e-19)
(0.0283137 1.31921 0)
(0.0344488 1.36472 0)
(0.0428828 1.32025 0)
(0.0478836 1.27488 0)
(0.0701552 1.3886 -4.88209e-20)
(0.0768012 1.35778 2.17006e-20)
(0.114089 1.53095 -1.22849e-20)
(0.0961349 1.37604 -7.43281e-21)
(0.0339483 1.46256 1.07186e-20)
(0.0378903 1.45568 -8.09274e-21)
(0.0621137 1.37329 -8.50089e-21)
(0.0542316 1.37446 4.2038e-20)
(0.0481155 1.34979 6.10431e-21)
(0.0388663 1.37284 2.77665e-21)
(0.107237 2.37135 -1.4859e-19)
(0.0960833 2.4187 0)
(0.171167 2.04628 1.06756e-19)
(0.111905 1.7104 3.81503e-20)
(0.233634 2.04093 -8.88372e-20)
(0.202397 2.43235 0)
(0.264035 2.38226 -6.01609e-19)
(0.304157 2.37988 4.25489e-19)
(0.230891 2.002 -2.46127e-19)
(0.155339 2.16121 1.67956e-19)
(0.142441 2.26937 0)
(0.0172865 1.8785 3.04948e-21)
(-0.0013037 2.39553 -3.9583e-20)
(0.00488057 2.15098 0)
(0.0104975 2.45791 -1.35474e-20)
(0.0271064 2.30197 1.013e-20)
(0.0157114 1.40553 -5.78467e-21)
(0.0142097 1.39019 9.77303e-20)
(0.0135782 1.39539 -3.23383e-20)
(0.0204127 1.39641 -2.71227e-20)
(0.0251813 1.42774 0)
(0.00959069 1.37711 0)
(0.000494882 1.29179 -3.66605e-20)
(0.00734544 1.36844 1.03021e-20)
(0.00928243 1.36858 0)
(0.00745755 1.28546 -2.70243e-20)
(0.015615 1.21126 5.53596e-20)
(1.04067 0.0118427 0)
(1.04681 0.00810311 -6.77384e-20)
(1.03858 0.0219197 -4.88822e-19)
(1.04824 0.0207598 0)
(1.05225 0.0206379 0)
(1.03627 0.0120282 -6.78256e-21)
(1.03096 0.0118572 7.85672e-19)
(1.0317 0.0167766 9.52567e-19)
(1.02552 0.020658 0)
(1.02239 0.0210251 0)
(1.03505 0.025644 4.87691e-19)
(1.02562 0.027005 0)
(1.0237 0.027099 0)
(-0.0184394 2.0218 0)
(0.000976635 1.64802 -4.30657e-21)
(-0.0049984 1.75702 -2.82117e-20)
(0.00164319 1.37996 0)
(-0.00703385 1.54722 -1.42578e-20)
(-0.00713123 1.45716 9.38535e-21)
(-0.00106819 1.39314 0)
(0.391935 1.65369 0)
(0.374282 1.30967 -6.58208e-20)
(0.304125 1.34575 0)
(0.428327 1.30877 1.10658e-21)
(0.476121 1.46517 0)
(0.457141 1.4125 2.71541e-20)
(1.03675 2.67811 -1.53509e-20)
(0.968463 2.4057 -9.12632e-19)
(0.921321 2.19321 1.02568e-18)
(0.852219 2.37412 2.41828e-19)
(0.848216 2.48842 0)
(0.918125 2.4844 0)
(0.931117 2.37049 0)
(0.909994 2.35958 -9.4312e-19)
(0.688495 2.4534 -3.9291e-19)
(0.801169 2.44297 -9.73526e-20)
(0.811605 2.41695 7.40133e-20)
(0.696005 2.39266 0)
(0.800949 2.38772 0)
(0.759251 2.40119 -3.68192e-19)
(0.768533 2.47867 0)
(0.627642 1.09387 0)
(0.481294 0.905852 -5.05712e-19)
(0.562615 0.946331 -3.2056e-20)
(0.52054 1.03936 0)
(0.520695 0.984011 7.58086e-19)
(0.792028 0.882556 -1.30545e-19)
(0.804874 1.01904 0)
(0.779728 0.985759 1.86674e-19)
(0.662182 1.03232 0)
(0.663598 0.935647 0)
(1.16432 2.75424 -2.28691e-19)
(1.14179 2.81757 -9.61522e-20)
(0.930234 2.33338 9.8796e-20)
(0.898145 2.3128 -8.28681e-20)
(1.12981 2.72729 0)
(1.0836 2.69686 9.9705e-20)
(1.08986 2.48082 -3.13554e-19)
(0.984512 2.23323 -3.04886e-20)
(0.495383 1.33782 0)
(0.510206 1.06551 -1.22347e-19)
(0.576467 1.1685 0)
(0.855141 0.244539 0)
(0.769925 0.194038 0)
(0.695177 0.155653 0)
(0.847711 0.245846 -6.40424e-19)
(0.741871 0.236539 3.73274e-19)
(0.925029 0.0835502 -4.10318e-19)
(0.935467 0.128609 0)
(0.919179 0.138316 1.76912e-19)
(0.854778 0.115995 7.08708e-19)
(0.81978 0.0758003 -4.43986e-19)
(1.1574 3.35171 -7.21615e-19)
(1.20609 3.27115 0)
(1.15513 3.38045 -1.4921e-18)
(0.643207 3.54175 1.26664e-18)
(0.86593 3.11024 7.47769e-20)
(0.519867 0.813335 6.02541e-19)
(0.426204 0.809961 0)
(0.316697 0.419441 -1.49627e-19)
(0.464972 0.65747 8.57426e-19)
(0.550529 0.38751 -1.99801e-19)
(0.512327 0.474678 2.33095e-19)
(0.669684 0.516363 5.00425e-19)
(0.705849 0.550582 0)
(0.656438 0.584846 0)
(0.618571 0.53247 0)
(1.00189 0.61209 9.08699e-20)
(0.915868 0.54844 -5.2087e-19)
(0.941358 0.581152 3.93121e-19)
(0.973854 0.519704 -4.02625e-19)
(1.08127 0.491611 0)
(1.0896 0.581249 -9.86298e-20)
(0.857357 0.402906 -8.37812e-19)
(0.858059 0.391809 -1.03754e-18)
(0.796061 0.387809 6.53152e-19)
(0.801685 0.362731 -6.65464e-19)
(0.846317 0.325815 -5.24051e-19)
(0.795161 0.325929 6.4168e-19)
(1.02666 0.00596076 -4.93902e-19)
(1.02637 0.00618187 1.00454e-18)
(1.0294 0.000132119 6.27489e-19)
(1.03359 0.00103616 -7.55735e-19)
(1.03374 0.00909598 0)
(1.03004 0.00978271 -1.23022e-18)
(0.0628474 1.64371 2.01421e-20)
(0.0460465 1.58344 0)
(0.0864416 1.69466 1.18961e-19)
(0.0969513 1.67682 -1.04206e-19)
(0.088979 1.54043 2.30296e-20)
(0.0878731 1.5315 0)
(0.0101095 1.68085 0)
(-0.00363288 1.48578 4.98226e-21)
(-0.00329081 1.43208 -4.47971e-21)
(-0.00747143 1.54399 5.18553e-21)
(0.00104543 1.88235 7.3868e-21)
(-0.0108822 1.93516 -1.81561e-22)
(0.49888 1.36337 -2.72916e-19)
(0.492368 1.36541 2.99777e-19)
(0.455225 1.30307 -2.84655e-20)
(0.43894 1.29031 7.67199e-21)
(0.63888 1.30565 0)
(0.555133 1.3951 1.06486e-19)
(0.5704 1.40063 -1.03683e-19)
(0.46864 1.2908 2.76816e-20)
(0.522636 1.24227 0)
(0.574587 1.20473 0)
(0.655681 2.41314 5.77195e-19)
(0.670604 2.45426 1.25872e-18)
(0.715173 2.465 -8.67099e-19)
(0.611464 2.43952 -2.01671e-19)
(0.561308 2.52969 2.82777e-19)
(0.510117 2.5042 -7.54021e-19)
(0.978464 2.37678 -5.73884e-19)
(1.01316 2.38908 0)
(0.926035 2.17099 -6.6096e-19)
(1.0544 2.67597 0)
(1.05668 2.66262 0)
(0.602715 2.26221 -1.19821e-19)
(1.03855 3.15614 1.34441e-19)
(0.909588 3.02655 -3.87624e-20)
(0.269692 0.866281 0)
(0.299431 0.714316 -3.1644e-19)
(0.466999 0.672451 -3.17474e-19)
(0.382114 2.00729 0)
(0.463357 2.78068 -5.20509e-20)
(0.417901 2.54351 0)
(0.706341 0.670896 -8.41201e-19)
(0.787941 0.681156 1.13342e-18)
(0.810404 0.624818 -1.1203e-18)
(0.686195 0.634292 -1.08271e-19)
(0.741008 0.590889 -4.45202e-19)
(1.00179 2.75653 -1.02242e-19)
(1.04164 2.8163 -1.6092e-19)
(0.634494 2.12972 6.81699e-19)
(0.587759 1.69726 -4.86032e-19)
(0.695605 1.89414 -4.02597e-19)
(0.987825 2.44007 -1.13072e-19)
(0.994367 2.43316 2.93028e-19)
(0.653261 1.82958 2.7945e-20)
(0.443897 1.31726 1.43078e-19)
)
;

boundaryField
{
    wall-4
    {
        type            noSlip;
    }
    velocity-inlet-5
    {
        type            fixedValue;
        value           uniform (1 0 0);
    }
    velocity-inlet-6
    {
        type            fixedValue;
        value           uniform (0 3 0);
    }
    pressure-outlet-7
    {
        type            zeroGradient;
    }
    wall-8
    {
        type            noSlip;
    }
    frontAndBackPlanes
    {
        type            empty;
    }
}


// ************************************************************************* //
