/*--------------------------------*- C++ -*----------------------------------*\
| =========                 |                                                 |
| \\      /  F ield         | OpenFOAM: The Open Source CFD Toolbox           |
|  \\    /   O peration     | Version:  4.0                                   |
|   \\  /    A nd           | Web:      www.OpenFOAM.org                      |
|    \\/     M anipulation  |                                                 |
\*---------------------------------------------------------------------------*/
FoamFile
{
    version     2.0;
    format      ascii;
    class       volScalarField;
    location    "42";
    object      p;
}
// * * * * * * * * * * * * * * * * * * * * * * * * * * * * * * * * * * * * * //

dimensions      [0 2 -2 0 0 0 0];

internalField   nonuniform List<scalar> 
918
(
0.572827
1.22367
0.00455426
0.572191
-0.0108562
1.19067
-0.483223
0.728099
0.552981
-0.0780191
-0.0125052
0.54888
1.05149
0.81741
-1.10766
0.00124793
0.678361
-0.361883
0.552025
-0.0115157
0.764144
0.559561
0.562591
0.553177
0.617496
0.795358
0.932618
0.0200196
0.00181149
-0.000385922
-0.0118808
-0.0380334
-0.0280387
1.07431
1.1254
1.1481
0.521186
0.348236
-0.347505
-0.414891
-0.407594
-0.527239
0.721417
0.721294
-0.16522
0.730777
0.737873
0.540143
0.552343
0.553247
0.554319
0.553276
0.554668
0.431307
-0.0819817
-0.11369
-0.0582284
-0.0501503
0.0815656
-0.0119698
-0.0139573
-0.0128662
-0.0165115
0.471718
0.544468
0.541591
0.554038
0.562987
1.16322
1.13513
1.16126
1.07501
1.09145
1.02946
1.00203
0.837914
0.859958
0.803129
0.789068
-1.54531
-2.50705
-0.512128
-0.258393
-0.0106425
0.00448187
0.0196919
0.670509
0.669228
0.680073
0.690594
1.10147
-0.359633
-0.472303
0.552157
0.550956
0.559333
0.560028
0.556042
0.555135
-0.0129116
-0.0131221
-0.0127387
-0.0118135
-0.0169808
0.753239
0.750822
0.553715
0.550731
0.56983
0.59083
0.582525
0.300838
0.621023
0.633953
0.620964
0.784269
0.780047
0.788231
0.906301
0.869978
0.969508
0.992782
0.0148367
0.00328794
-0.00395534
-0.0105669
-0.00783824
0.517105
0.509802
0.536248
0.524552
0.527003
0.264056
0.12912
0.43374
0.458764
-0.261163
-0.320981
-0.414586
-0.437024
-0.551599
0.619169
0.711812
0.710151
-0.18325
-0.10871
-0.238182
-0.035693
-0.0959444
0.530525
0.537445
0.532491
0.547923
0.542417
0.544368
0.556594
0.553672
0.555229
0.494111
0.618031
0.357533
0.322787
-0.220847
-0.131787
-0.223487
-0.0363132
-0.0312921
0.0962818
0.121727
0.0683873
0.0576851
-0.0254119
-0.0173044
-0.020574
-0.0149335
-0.0152048
0.464668
0.453836
0.484105
0.491445
0.534455
0.535642
0.53901
0.537472
0.952799
0.975277
0.982723
0.956364
-3.5078
-6.31029
0.0703807
0.208845
-0.00189557
-0.00698079
0.00360907
-0.00306148
0.0010318
-0.00057293
0.0176548
0.0196782
0.0229043
0.0284049
0.658357
0.658168
1.02099
1.02255
1.0016
0.95238
0.540263
0.542378
0.547912
0.543773
-0.0158185
-0.0140853
-0.0164313
0.739048
0.746695
0.744682
0.26356
0.17631
0.350305
0.378447
0.649111
0.637364
0.647302
0.683239
0.719575
1.00023
1.01843
1.01667
1.02494
1.0689
1.08524
1.05069
0.497073
0.506767
0.501878
0.539433
0.537145
0.538079
0.533634
0.535094
0.532923
-0.0227768
-0.406353
0.507748
0.526254
0.507563
0.513281
0.699036
0.776662
0.692348
0.702266
0.7001
0.0305063
-0.0268993
0.278804
0.245187
0.405787
0.441414
0.420782
0.924141
0.884162
0.934336
0.907707
0.868844
0.895331
-0.357983
-1.87034
-0.982389
0.563199
0.375131
0.463786
0.039378
0.0193282
0.0264146
1.01558
1.09237
0.673597
0.842728
0.849382
0.754698
0.784504
0.844066
0.769112
0.804412
0.838778
0.817055
0.575859
0.519812
0.530749
0.846937
0.90374
0.148903
0.0920407
0.0474998
0.140848
0.198061
0.171987
1.05453
0.959828
1.03192
0.550483
0.551183
0.00880704
0.00691375
0.555357
0.555401
-0.00463562
0.00427127
0.445785
-0.817373
0.134063
0.543841
0.53402
0.550991
-0.0610637
0.386062
-0.011879
0.0791504
0.0194048
0.546913
0.482322
0.442659
0.0171184
-0.0119488
-0.0110875
-0.188963
0.548155
0.546465
0.550459
0.551429
0.552094
-0.000431654
0.0037999
0.00189689
-0.0112432
-0.00818904
-0.0107898
0.515414
0.533267
-0.144543
0.550601
0.552727
0.552548
0.545744
0.551401
0.549634
0.000347204
-0.00432613
-0.0107044
0.247389
0.372091
0.690731
0.783014
0.659551
0.432528
0.194137
0.59121
0.655972
0.55957
0.716094
0.706113
0.724008
0.199511
0.0500963
0.207164
0.148364
0.541708
0.540397
0.532286
0.529331
0.545855
0.543971
0.548519
0.545524
0.548466
0.549861
-0.0188443
-0.0428006
-0.0572441
-0.122972
0.342427
0.6025
0.282318
0.312387
0.173243
-0.00727271
-0.0100147
-0.0121756
-0.0169495
0.0306734
0.00413441
0.0713022
0.0714014
0.0422644
0.0173749
0.0219132
0.0100017
0.0124175
0.540172
0.538461
0.544844
0.553483
0.491674
0.495444
0.461187
0.481432
0.466941
0.407671
0.441893
0.417402
0.00764703
0.0221581
0.00832943
-0.00442034
0.0022278
-0.00826738
-0.00433185
-0.00505417
0.00303372
-0.00494448
-0.00907993
-0.0151408
-0.148132
-0.261617
1.00708
0.940432
0.149662
0.537349
0.543769
0.540553
0.545365
0.548492
0.549335
0.547078
0.543644
0.533766
0.535447
0.531996
0.532703
-0.0810989
-0.217835
-0.0457849
-0.115717
0.157971
0.640227
0.383928
0.323023
0.317308
0.540909
0.948777
0.741054
0.727141
0.747472
-0.322386
0.0737866
-0.25562
0.364002
0.186109
0.690419
0.738931
0.759202
0.707962
0.660603
-0.0928233
0.570682
-0.0395196
0.0086281
0.204885
0.0909069
0.728314
0.689673
0.693961
0.712941
0.731611
0.695659
0.678199
0.672999
0.708576
0.71224
0.517581
0.278584
0.231487
0.193158
0.671472
0.556053
0.611657
0.522904
0.536738
0.539467
0.538067
0.520157
0.527596
0.52324
0.529305
0.532629
0.541569
0.541949
0.537341
0.539501
-0.0241071
-0.0274383
-0.00292977
-0.111373
-0.10219
-0.161394
-0.0399839
0.101683
0.0646535
0.258663
0.364606
0.0770354
-0.0383827
-0.00930953
0.0266711
0.203285
0.22845
0.105321
0.192676
0.181588
0.16563
0.266573
0.271759
0.00550959
0.000839038
0.000453458
-0.00224352
0.0499169
0.122302
0.132397
0.0235043
0.0181939
-0.012881
-0.0131271
0.00734184
0.00404441
0.00658339
0.0435418
-0.0341004
-0.00258666
0.0142791
0.0258414
0.0204524
0.0160176
0.532752
0.53488
0.534559
0.542325
0.559769
0.575604
0.533348
0.513426
0.50441
0.507388
0.481062
0.491157
0.487051
0.500549
0.520744
0.529808
0.527486
0.53013
0.513059
0.514649
0.501615
0.505292
0.480921
0.462309
0.450809
-0.0241611
0.0177563
0.0063756
-0.0217874
0.00925606
-0.00497283
0.0157835
0.0290819
0.0158712
0.0116084
0.00690899
-0.00286982
0.000223385
-0.0534947
0.0292881
-0.162185
-0.195923
-0.264459
0.91152
1.03173
0.834049
0.609667
0.62404
0.86354
0.950532
0.571569
0.757778
0.781486
0.593389
0.862469
0.542146
0.541758
0.539359
0.538837
0.540064
0.00873463
0.110191
0.117721
0.173764
0.289315
0.402654
0.324761
0.202191
0.335087
0.338919
0.634909
0.648661
0.60197
0.624449
0.624907
0.447543
0.524683
0.578053
0.53331
0.582122
0.60361
0.562129
0.592997
0.54172
0.49765
0.494473
0.443098
0.465038
0.441876
0.423438
0.531877
0.509803
0.519992
0.510438
0.529842
0.553683
0.550548
0.582241
0.593413
0.514265
0.471698
0.481671
0.510691
0.471865
0.486249
0.501914
0.239834
0.139093
0.224723
-0.0647489
0.0143169
-0.000546279
-0.0476282
-0.00149094
0.284018
-0.41208
-0.386226
-1.01826
0.510959
0.978935
0.680567
0.653462
0.72835
0.707798
0.712241
0.734154
0.739546
0.662118
0.679533
0.683224
0.644009
0.667839
0.69019
0.687453
0.541495
0.411538
0.405458
0.360681
0.232531
0.268329
0.471083
0.392788
0.317853
0.320079
0.483002
0.369968
0.437633
0.476166
0.407653
0.362031
0.567325
0.63216
0.621758
0.596316
0.514897
0.529679
0.554013
0.589816
0.616421
0.648569
0.529
0.534816
0.536069
0.53361
0.530807
0.533757
0.533888
0.536423
0.537214
0.540144
0.539151
-0.0111521
-5.14735e-05
-0.013877
-0.0200946
0.00906611
0.00501669
0.0495357
0.0352803
0.0195287
0.0264262
0.000124186
-0.00448446
0.00109593
0.0101318
0.126962
0.140257
0.123583
0.0843651
0.272479
0.402968
0.47338
0.351963
0.244731
0.268419
0.291369
0.0164587
0.0435008
0.02989
0.0712197
0.0630547
-0.00431895
-0.0110006
-0.00637043
-0.00049425
0.0123067
-0.00778652
-0.0123654
-0.00372796
-0.00691703
-0.0101306
-0.0141623
0.515615
0.509157
0.510635
0.504647
0.503432
0.517428
0.521664
0.523511
0.528841
0.530908
0.521374
0.526873
0.530498
0.0124556
-0.0092124
-0.0155162
-9.66399e-05
-0.00212406
-0.00256088
-0.00252263
0.137305
0.0676941
0.0723621
0.0263951
-0.100988
-0.0440654
0.500167
0.497724
0.493111
0.730972
0.581349
0.499854
0.595298
0.701073
0.287452
0.486274
0.319264
0.902648
0.79561
0.942106
0.557263
0.254139
0.411257
0.461568
0.268762
0.341287
0.345098
0.232351
0.264154
0.297497
0.399098
0.275849
0.250632
0.00797796
0.195639
0.31273
0.293555
0.42225
0.484532
0.2724
0.19294
0.148388
0.625948
0.644105
0.661787
0.633629
0.657145
0.591783
0.580217
0.598128
0.607476
0.603552
-0.745704
-0.452994
-1.39735
-0.712306
-0.261298
0.541874
0.50529
0.783309
0.667508
0.728692
0.713021
0.670154
0.636351
0.651853
0.682238
0.375894
0.487895
0.462456
0.467458
0.367742
0.299672
0.602138
0.595985
0.631865
0.655744
0.623122
0.655533
0.526772
0.526419
0.526005
0.522379
0.520679
0.52292
0.0872537
0.0559236
0.0909045
0.0724774
0.0501077
0.0381182
0.019266
0.0103607
0.00226067
0.00263926
0.0141004
0.0180669
0.17853
0.11973
0.0433604
0.0720455
0.0127249
-0.0530598
-0.0718132
0.029697
0.12243
0.11283
0.419317
0.671511
0.492233
0.661476
0.500346
0.556568
0.483776
0.476965
0.503614
0.390924
0.470396
0.243995
-0.262007
-0.169904
0.799042
0.815905
0.598799
0.415069
0.184893
0.371731
0.566129
0.500514
0.539029
0.608322
0.599052
0.0264685
0.0912899
0.357002
0.584311
0.245729
0.238048
0.232302
0.408483
0.331233
)
;

boundaryField
{
    wall-4
    {
        type            zeroGradient;
    }
    velocity-inlet-5
    {
        type            zeroGradient;
    }
    velocity-inlet-6
    {
        type            zeroGradient;
    }
    pressure-outlet-7
    {
        type            fixedValue;
        value           uniform 0;
    }
    wall-8
    {
        type            zeroGradient;
    }
    frontAndBackPlanes
    {
        type            empty;
    }
}


// ************************************************************************* //
