/*--------------------------------*- C++ -*----------------------------------*\
| =========                 |                                                 |
| \\      /  F ield         | OpenFOAM: The Open Source CFD Toolbox           |
|  \\    /   O peration     | Version:  4.0                                   |
|   \\  /    A nd           | Web:      www.OpenFOAM.org                      |
|    \\/     M anipulation  |                                                 |
\*---------------------------------------------------------------------------*/
FoamFile
{
    version     2.0;
    format      ascii;
    class       volVectorField;
    location    "42";
    object      U;
}
// * * * * * * * * * * * * * * * * * * * * * * * * * * * * * * * * * * * * * //

dimensions      [0 1 -1 0 0 0 0];

internalField   nonuniform List<vector> 
918
(
(0.985163 -0.00050291 0)
(0.00500954 2.96625 0)
(0.00208131 0.825603 0)
(0.979703 0.00214801 0)
(-0.0118662 2.03621 3.55548e-20)
(-0.00704207 2.94879 -2.55087e-18)
(0.822166 1.16109 4.25642e-19)
(0.264793 0.126555 -1.61753e-20)
(0.999908 -0.000282514 0)
(0.0606142 0.807304 0)
(0.0164145 0.618244 0)
(0.734861 -0.0159538 0)
(0.0111205 2.93032 0)
(0.00273328 2.79475 0)
(-0.0174657 3.1555 7.6234e-19)
(-0.0184477 1.88096 -2.67791e-21)
(0.329972 0.0334015 1.05968e-18)
(0.190016 1.17278 2.96059e-19)
(0.96277 0.00502004 0)
(-0.00622289 0.58466 0)
(0.0555365 0.1698 -7.66524e-19)
(1.00198 -0.00498036 0)
(1.00022 -0.00979096 0)
(0.975727 -0.00643983 0)
(0.58488 -0.0380302 0)
(0.0156465 2.63932 0)
(-0.0148654 2.91 9.44241e-19)
(0.00369299 0.901851 0)
(0.00680658 1.13424 0)
(-0.000656138 0.877876 0)
(-0.0135944 2.61037 0)
(0.0010437 2.09492 -2.83804e-20)
(-0.00937622 1.85664 0)
(-0.0206087 2.9876 -9.19363e-23)
(-0.0166911 3.0053 1.98257e-18)
(0.0021053 3.00019 0)
(0.870776 -0.0094594 0)
(0.404387 0.938139 1.89517e-19)
(0.800665 1.17889 -4.66938e-19)
(0.946216 1.01693 5.13017e-19)
(0.672005 1.27177 -9.78541e-20)
(0.671422 1.25793 5.65436e-19)
(0.304157 0.20351 1.57804e-20)
(0.279137 0.0978289 0)
(1.12678 0.5477 0)
(0.270161 0.195594 7.21276e-20)
(0.235011 0.127234 -7.48469e-20)
(0.919786 -0.00745175 0)
(1.00027 0.000152768 0)
(0.999909 0.000335443 0)
(1.00363 -0.00776871 0)
(1.00096 -0.000928161 0)
(1.00017 3.01035e-05 0)
(0.077308 1.81373 -8.25142e-19)
(0.0279307 0.987955 0)
(0.0957987 0.870827 0)
(0.0132577 0.937904 0)
(0.0343858 0.747051 0)
(0.0184841 1.9986 0)
(0.0123659 0.832373 0)
(0.010562 0.640621 0)
(0.01674 0.815487 0)
(0.010531 0.59287 0)
(0.838637 -0.015757 0)
(0.846538 0.0291519 0)
(0.767738 -0.00449864 0)
(0.816735 0.039033 0)
(0.703395 -0.0187729 0)
(0.0146941 3.0004 9.46747e-19)
(0.0115139 3.008 0)
(0.00612153 3.00279 0)
(0.0135536 2.99735 1.07613e-23)
(0.00797398 2.95846 -1.4071e-18)
(0.0144871 2.982 0)
(0.0108273 2.90362 0)
(0.0249024 2.93044 2.17734e-24)
(0.00446489 2.82486 0)
(0.0310316 2.91605 0)
(-0.00561304 2.74566 0)
(0.308373 3.55224 0)
(-0.131787 3.63375 0)
(0.139672 3.24585 -7.09442e-19)
(-0.0125953 2.98121 0)
(-0.016596 2.01634 0)
(-0.00539015 2.15798 2.64123e-21)
(-0.0085235 1.89242 -1.94467e-20)
(0.43008 0.142684 -3.66671e-19)
(0.33162 0.0180152 -3.53743e-19)
(0.410396 0.157796 -1.10429e-18)
(0.314759 0.0493994 -7.28309e-19)
(0.222809 0.96267 0)
(0.272027 1.31847 -3.56761e-19)
(0.369761 1.25624 5.9687e-19)
(0.987471 0.00855148 0)
(0.941922 0.00584025 0)
(1.0003 0.000578141 0)
(1.00286 0.00930565 0)
(1.00302 0.00846063 -2.8241e-18)
(0.991913 0.00970043 2.13268e-18)
(-0.0154967 0.801783 0)
(-0.00158229 0.575898 0)
(-0.0150813 0.94948 0)
(-0.000585363 0.811689 0)
(-0.0110446 0.576674 0)
(0.0892888 0.172717 2.36903e-19)
(0.147076 0.149045 0)
(0.99354 -0.00838022 0)
(0.954426 -0.00651896 0)
(0.764443 0.0462842 0)
(0.700124 0.0568527 0)
(0.663967 -0.0309071 0)
(0.962509 -0.00854636 0)
(0.616827 0.076299 0)
(0.444999 -0.0110265 1.56785e-18)
(-0.0366334 2.86388 7.12105e-19)
(0.0418711 2.90966 0)
(0.0543827 2.88502 0)
(-0.00423368 2.69936 0)
(-0.013356 2.98505 8.96641e-19)
(-0.0180115 2.89504 0)
(-0.0154584 2.98807 -2.77503e-18)
(-0.0133275 2.92516 9.49269e-19)
(0.0245996 1.34533 0)
(0.0437566 1.38884 0)
(-0.00428271 2.11905 2.17975e-22)
(-0.00443774 2.07151 0)
(-0.022663 1.86694 0)
(0.938059 -0.00762547 0)
(0.856502 -0.00972238 0)
(0.863366 0.00621198 0)
(0.949249 -0.0080345 0)
(0.883703 -0.00810491 0)
(0.516619 1.13187 -2.38877e-19)
(0.566068 1.18345 0)
(0.36815 0.882255 3.49883e-20)
(0.310312 0.741196 0)
(0.906032 1.05603 -1.39798e-19)
(1.0154 0.858338 2.77814e-19)
(0.363137 1.36799 0)
(0.527525 1.33396 0)
(0.542988 1.28731 0)
(0.116132 0.180517 -3.05539e-19)
(0.337296 0.195925 0)
(0.303197 0.0907426 2.06093e-19)
(0.986601 0.914125 0)
(1.05289 0.764482 0)
(1.07654 0.704556 -2.09265e-19)
(1.10815 0.608203 0)
(1.15868 0.3937 5.48954e-20)
(0.957555 -0.00883324 0)
(0.962404 -0.0100941 0)
(0.901535 -0.00797551 0)
(0.984175 -0.00917015 0)
(0.974655 -0.00937166 0)
(0.937068 -0.00636296 0)
(1.00019 0.0023368 0)
(1.0009 0.00140456 0)
(0.99991 0.000853791 0)
(0.0350912 2.06566 4.55155e-19)
(0.120458 1.75571 0)
(0.0162745 2.18145 7.11028e-19)
(0.0513704 1.86796 -6.0094e-19)
(0.105997 1.18014 -2.41948e-19)
(0.0457927 1.06616 0)
(0.142481 1.02301 0)
(0.00509335 0.895323 0)
(0.0178196 0.697271 0)
(-0.00437684 2.23572 -1.23093e-21)
(0.0262602 2.00567 0)
(-0.00408872 2.23905 -5.49088e-20)
(0.0174356 2.00567 9.69477e-20)
(0.00445066 0.870988 0)
(0.00904434 0.849276 0)
(0.00788938 0.664697 0)
(-0.00459967 0.802173 0)
(0.00278654 0.580949 0)
(0.935887 0.00904973 0)
(0.846329 -0.015275 0)
(0.925763 -0.000125493 0)
(0.840529 -0.0127882 0)
(0.812035 0.000910618 0)
(0.901346 0.0200841 0)
(0.877373 0.0243664 0)
(0.788728 -0.00115248 0)
(0.00576519 3.06487 -8.87613e-21)
(0.0165364 3.05773 0)
(0.0146397 2.96906 0)
(0.00866094 2.8763 0)
(0.925323 3.96862 0)
(1.23996 3.30118 9.29891e-19)
(0.070072 3.07339 0)
(-0.0285792 2.90478 0)
(0.0232325 1.42239 0)
(-0.0214094 1.7322 0)
(0.0144215 1.58652 0)
(-0.0298065 2.56496 -3.40205e-21)
(-0.0144957 2.25532 0)
(-0.0204499 2.40166 0)
(0.0154841 1.93329 -1.58382e-22)
(-0.00825316 2.22472 1.63749e-20)
(-0.0079112 2.18725 1.96131e-20)
(0.00857826 1.90855 0)
(0.45998 0.121485 5.52004e-19)
(0.362486 0.00631212 -5.42093e-19)
(0.259837 1.57612 0)
(0.271113 0.737392 -3.20006e-19)
(0.177496 1.66169 -1.07331e-18)
(0.227562 1.20389 1.07593e-18)
(0.902207 0.00648725 0)
(0.967487 0.0110607 0)
(0.974613 0.0107882 0)
(0.923425 0.00648881 0)
(-0.00288367 0.787038 0)
(-0.0161427 0.790438 0)
(-0.00726312 0.575245 0)
(0.232486 0.190122 6.64974e-19)
(0.194566 0.177415 -7.87747e-19)
(0.197793 0.136854 0)
(1.08604 0.0824655 2.95329e-20)
(1.06887 0.0372883 0)
(1.00455 0.0384991 0)
(0.900504 -0.0070773 0)
(0.493668 0.102562 0)
(0.539681 0.0859209 -2.50687e-18)
(0.398214 0.00354197 9.38652e-19)
(0.00903923 2.98132 7.6007e-19)
(-0.0325304 2.86597 4.69072e-20)
(0.00364609 3.05029 -1.87604e-20)
(0.0201156 3.04334 6.66327e-19)
(-0.0149853 2.99656 3.11417e-20)
(-0.0129579 2.94943 -1.25217e-22)
(-0.0172882 3.01196 -5.74846e-19)
(0.0148796 3.02381 4.1653e-19)
(0.00739336 3.03691 -6.60893e-19)
(0.932809 -0.00173141 0)
(0.938667 -0.00357325 0)
(0.844557 -0.00926857 0)
(0.956698 0.0117728 0)
(0.942979 0.0130242 0)
(0.881746 0.00603814 0)
(0.917911 0.0165191 0)
(0.926427 0.0147495 0)
(0.838579 0.00351349 0)
(0.720099 1.41063 3.07355e-20)
(0.753654 1.51976 0)
(0.186799 0.324926 7.29744e-20)
(0.219422 0.659104 5.90017e-19)
(0.259982 0.719661 -3.43427e-19)
(0.265304 0.533701 6.82828e-19)
(0.337484 0.791138 1.60659e-18)
(0.134658 0.221776 3.7787e-19)
(0.384327 0.17715 7.72761e-19)
(0.364228 0.189726 2.01397e-19)
(0.31151 0.0703107 3.84394e-19)
(1.14948 0.451894 2.92549e-20)
(1.16882 0.249009 2.40675e-20)
(0.00755101 2.23025 2.7961e-19)
(0.0469552 1.9365 0)
(0.965191 0.0283953 0)
(0.939354 0.013196 0)
(0.863904 -0.0185709 0)
(0.0113495 3.07448 0)
(0.0198958 2.94422 1.22696e-18)
(0.0164321 2.95642 0)
(0.00628333 2.85052 -1.2171e-18)
(0.00630682 3.09184 2.98482e-19)
(0.00701323 3.08212 0)
(0.786771 1.82237 -1.57768e-19)
(1.24774 2.50035 4.00902e-19)
(0.768917 1.9621 -1.23187e-18)
(0.0200435 2.9819 -6.58717e-19)
(0.0355554 3.00135 0)
(-0.0341378 2.87823 0)
(-0.00483317 2.21534 -1.33634e-20)
(-0.00698046 2.23598 -3.61964e-20)
(0.0139778 1.9648 -8.65138e-21)
(0.276212 1.38398 1.04102e-18)
(0.229886 0.525378 -7.13997e-19)
(0.0636866 1.98983 7.90703e-19)
(0.136012 1.87739 -9.37037e-19)
(0.180172 1.49659 9.20263e-20)
(0.00547424 3.11853 -1.66905e-18)
(0.0114346 3.11927 1.826e-18)
(-0.00914975 2.98061 8.29718e-19)
(-0.00422437 2.97735 -7.86521e-19)
(-0.0214609 2.88082 -8.45057e-19)
(0.00846326 3.09932 -2.22099e-18)
(0.00157952 3.10536 2.23748e-18)
(0.27387 0.6825 0)
(0.23873 0.672862 -1.21523e-18)
(0.0957823 0.222996 5.38828e-19)
(0.351828 0.917108 1.12237e-18)
(0.190054 0.266748 -1.73045e-18)
(1.16715 0.169394 7.49046e-20)
(1.17013 0.302706 0)
(1.15558 0.118422 -2.10859e-20)
(-0.00244579 2.24817 -1.90111e-21)
(0.0018016 2.23927 0)
(0.0329364 1.97154 0)
(0.339932 1.29211 -3.74669e-19)
(0.369882 1.12947 -8.09525e-19)
(0.203688 0.365928 1.4417e-18)
(1.00587 -0.0108585 0)
(1.00766 -0.00765197 5.21244e-19)
(0.0228825 1.31959 0)
(-0.00109943 1.28702 0)
(1.00222 0.00350261 1.80129e-21)
(1.00366 0.00944908 1.06378e-18)
(-0.0210983 2.54865 4.30751e-21)
(-0.0282334 2.59077 0)
(0.0354831 3.1785 4.42288e-19)
(0.395215 3.49098 0)
(1.15668 0.646972 -7.25895e-20)
(1.01293 0.0130599 -2.15374e-21)
(1.02126 -0.0103965 0)
(1.0017 0.000112342 7.59947e-23)
(0.102061 1.35868 0)
(0.146144 2.57415 0)
(0.0191792 1.29586 0)
(0.00159526 2.62908 5.55747e-20)
(-0.021301 2.58879 2.45181e-20)
(1.0013 0.0287771 2.44443e-21)
(1.06167 0.00347662 0)
(1.09457 0.023027 0)
(-0.0194185 1.75983 0)
(-0.0242628 2.59422 0)
(-0.0030351 1.28552 0)
(0.294501 1.47119 -1.47688e-19)
(1.01127 -0.00965109 0)
(1.00939 -0.0149345 0)
(1.00237 0.000732021 6.66117e-19)
(1.00547 -0.0048231 -7.82856e-19)
(1.00118 -0.000997365 0)
(-0.00155389 1.47733 0)
(0.0175835 1.37538 0)
(0.0208127 1.44268 0)
(-0.00225106 1.27289 0)
(0.00567992 1.24737 0)
(0.00113076 1.222 0)
(1.03461 -0.00638876 0)
(1.02043 0.0157062 -9.14725e-22)
(0.79948 1.26533 2.37221e-19)
(1.00223 0.000293205 -6.63274e-19)
(1.00406 0.00524671 7.76601e-19)
(1.00117 0.00206481 0)
(1.01279 0.0102865 6.60387e-19)
(1.00802 0.00829626 -7.99804e-19)
(1.00858 0.0146904 0)
(-0.02832 2.62094 0)
(-0.0297619 2.59916 -7.36397e-21)
(-0.0285241 2.61324 6.12717e-21)
(1.22778 0.257889 6.3897e-19)
(1.15643 0.0839698 0)
(0.0431038 3.07758 -9.69902e-19)
(0.0653176 2.85409 -7.05576e-20)
(0.141755 3.19288 1.4817e-18)
(0.136544 3.22164 -2.20022e-19)
(0.135319 3.23397 0)
(0.0192539 3.13758 2.51611e-19)
(0.0760251 3.16024 9.57157e-19)
(0.0686303 3.18622 -4.7392e-19)
(0.0223818 3.12941 0)
(0.636231 0.287121 0)
(0.563437 0.338349 0)
(1.12237 0.683509 1.7793e-19)
(1.11743 0.809929 -1.76648e-19)
(1.18412 0.568631 0)
(1.21494 0.504347 0)
(1.01614 0.0132874 -1.23123e-18)
(1.01498 0.0142451 1.54549e-18)
(1.02523 -0.00991292 0)
(1.0233 -0.0118942 0)
(1.00644 0.00255975 0)
(1.01042 0.00369291 0)
(1.0046 0.0018182 0)
(1.00978 0.00617917 0)
(1.00786 0.00597473 0)
(1.0045 0.00466447 0)
(0.0901623 1.35528 0)
(0.0845805 1.3268 0)
(0.122722 1.39278 0)
(0.136448 1.40327 0)
(0.14623 2.59842 0)
(0.186233 2.66576 -4.45877e-19)
(0.101788 2.65508 0)
(0.0874797 2.65875 2.20195e-19)
(0.0412798 2.68183 -1.89042e-19)
(0.0277794 1.30788 0)
(0.0213589 1.24199 0)
(0.024265 1.32396 0)
(0.0287117 1.26432 0)
(0.00471822 1.98146 -2.03165e-20)
(-0.0198838 2.6165 6.75795e-21)
(-0.0071175 2.67178 4.40268e-20)
(-0.0177018 2.6913 0)
(-0.0242512 2.62303 -5.57971e-20)
(-0.0238275 2.61785 -2.06832e-20)
(0.014484 1.98083 1.79802e-20)
(-0.00644894 2.4042 -9.069e-21)
(-0.0119335 2.42457 -4.99281e-20)
(1.01122 0.0365427 1.25496e-18)
(1.00685 0.0161642 -1.54986e-18)
(1.00249 0.0433179 -1.25552e-18)
(0.980599 0.0224776 1.60005e-18)
(1.06299 0.00734286 0)
(1.04847 -0.0086652 0)
(1.0921 0.0328802 0)
(1.07264 0.0116148 0)
(1.07045 -0.000392953 0)
(1.13713 0.0796438 0)
(1.10875 0.0421546 0)
(1.11179 0.0302506 0)
(-0.0213406 2.4444 -1.42938e-21)
(-0.0220786 2.01101 0)
(-0.0142808 2.22522 0)
(-0.0246927 2.61464 -2.05249e-21)
(-0.0233401 2.62261 -2.94001e-22)
(0.00232313 1.57105 -7.22233e-21)
(0.00584707 1.50384 7.27916e-21)
(-0.00621616 1.38386 0)
(-0.00265468 1.39323 0)
(-0.000385423 1.38982 0)
(-0.00277657 1.28754 0)
(0.00744214 1.22713 0)
(0.37799 1.48644 2.3595e-19)
(0.417557 1.4905 1.3205e-19)
(0.596773 2.44709 -2.43196e-19)
(0.40143 2.54138 7.17857e-19)
(0.350287 2.0659 7.80109e-20)
(1.02097 -0.0081961 0)
(1.01545 -0.0097939 0)
(1.01489 -0.0155303 0)
(1.00745 -0.00117962 0)
(1.00494 -0.000949254 0)
(1.00776 -0.00475871 0)
(1.00924 -0.00370881 0)
(1.01417 -0.00447751 0)
(1.02115 0.0161014 1.20559e-18)
(1.01799 0.0157234 -1.54502e-18)
(1.02159 0.0180499 -1.21411e-18)
(1.01946 0.0167208 1.51962e-18)
(0.765686 1.31451 0)
(0.701556 1.36652 2.19342e-19)
(0.875512 1.21143 7.36775e-20)
(0.918502 1.16282 -9.79881e-20)
(1.15745 2.60857 3.09347e-19)
(0.80241 0.112791 6.11853e-19)
(1.1596 0.104492 0)
(1.20541 0.188042 -5.13425e-19)
(1.18929 0.150607 -2.16986e-20)
(1.00416 0.147842 0)
(0.135598 2.96062 5.69649e-19)
(0.112731 2.86645 -1.2301e-18)
(0.0228538 2.3734 8.29209e-19)
(0.0907558 -0.0325105 -3.70604e-19)
(0.340268 3.42013 -1.99533e-19)
(0.194645 3.31266 0)
(0.237596 3.35463 2.59859e-19)
(0.245281 3.03389 -1.8732e-18)
(0.339699 3.1931 0)
(0.00704333 3.1207 4.88107e-20)
(0.0178113 3.12944 -5.71595e-19)
(0.0156885 3.12554 8.413e-19)
(0.0354711 3.13954 0)
(0.0335961 3.15068 0)
(1.21616 2.6076 0)
(0.54238 0.83358 -5.4435e-19)
(1.04116 0.986625 1.39313e-20)
(0.976978 1.06528 0)
(0.830615 0.968822 -1.21058e-19)
(1.06642 0.878875 2.85992e-20)
(0.362868 0.386524 -9.54189e-19)
(0.683152 0.314926 -2.12353e-20)
(0.642818 0.226835 4.3784e-19)
(0.584061 0.370792 3.23703e-20)
(0.497165 0.337021 -1.30352e-18)
(0.655429 0.330448 0)
(0.703405 0.417815 7.43895e-19)
(0.711025 0.419147 0)
(0.619268 0.358657 0)
(0.581615 0.281775 0)
(0.805443 0.613823 4.40194e-19)
(1.22782 0.279898 -5.39432e-19)
(1.22571 0.414709 0)
(1.23482 0.355805 0)
(0.733173 0.186072 6.49377e-19)
(0.852703 0.535417 -4.04437e-19)
(0.748407 0.506703 7.1685e-19)
(0.951977 0.425114 -7.881e-19)
(1.01965 0.0147493 8.28692e-19)
(1.01781 0.014224 -8.33532e-19)
(1.01594 0.0155293 0)
(1.03603 -0.00593324 0)
(1.02965 -0.00858603 -7.81118e-19)
(1.02764 -0.0121211 7.73389e-19)
(1.02501 0.00995007 0)
(1.02364 0.0135553 0)
(1.01142 0.0040707 0)
(1.01427 0.00901692 0)
(1.01513 0.0039694 0)
(1.01424 0.00277133 0)
(0.0602227 1.34002 0)
(0.0622196 1.29716 0)
(0.144086 1.36718 -1.80946e-20)
(0.269833 1.46806 7.49664e-20)
(0.163571 1.43991 1.55367e-19)
(0.194836 1.44692 -2.54875e-19)
(0.165078 1.39043 0)
(0.130424 1.59393 -9.91771e-20)
(0.115261 1.56649 0)
(0.348054 2.01824 -1.13397e-19)
(0.344967 2.34982 6.45725e-19)
(0.186337 1.45106 8.64867e-20)
(0.26206 1.38136 1.31891e-20)
(0.196714 1.37065 -1.06792e-20)
(0.272069 1.32314 -1.24595e-19)
(0.23978 1.57696 0)
(0.260544 1.6165 1.29573e-19)
(0.0340587 2.26464 -4.23467e-20)
(0.04418 2.67046 0)
(0.0669471 2.40177 1.6394e-19)
(0.0625123 2.42269 0)
(0.0710281 2.67177 -2.43845e-19)
(0.0513093 2.70061 0)
(0.0310237 1.40722 -1.42021e-21)
(0.0379658 1.46048 0)
(0.0310219 1.37831 0)
(0.0264517 1.37944 1.60234e-21)
(0.00177296 2.65667 -1.76116e-20)
(0.0308403 2.69982 2.16786e-19)
(0.012548 2.72608 1.51574e-21)
(0.00643981 1.8284 1.84947e-20)
(-0.00107247 1.67501 7.64857e-21)
(0.0196107 1.29393 0)
(0.0247834 1.22474 0)
(0.0489381 1.5717 1.33188e-20)
(0.0298669 1.44491 8.38015e-21)
(0.0390112 1.51007 -1.02011e-20)
(0.0408955 1.59651 0)
(-0.0305745 2.27882 5.09769e-20)
(-0.0309601 2.56174 -1.97627e-20)
(-0.0191481 2.45766 -1.54305e-21)
(-0.00255849 1.84589 -2.24109e-20)
(-0.0265927 2.50797 -6.93107e-21)
(-0.0214629 2.44924 3.80113e-20)
(1.01955 0.0208164 -8.2371e-19)
(1.0157 0.0264382 8.27445e-19)
(1.01485 0.0162918 0)
(1.01189 0.0692675 1.16239e-18)
(0.990502 0.0581117 -1.30484e-18)
(0.949997 0.042602 1.46111e-18)
(1.01382 0.106271 -1.55016e-19)
(1.0423 -0.00598835 0)
(1.05041 -0.0018073 7.46428e-19)
(1.03862 -0.0100443 -7.47899e-19)
(1.06956 0.0411926 -4.45e-20)
(1.06338 0.0224238 3.82845e-19)
(1.06247 0.0540075 0)
(1.05257 0.0482255 -1.37736e-19)
(1.03255 0.0410929 0)
(1.02601 0.0371703 0)
(1.02783 0.0128996 0)
(1.02423 0.0157049 0)
(1.03989 0.0311362 2.83464e-19)
(1.0392 0.0260849 -6.25863e-19)
(1.05043 0.0324938 -3.00609e-19)
(1.04859 0.0322958 -3.30858e-19)
(1.07013 0.0629486 6.47787e-19)
(1.09461 0.0503707 0)
(1.10263 0.0940821 0)
(-0.0248349 2.28567 3.12107e-20)
(-0.017679 2.03166 -2.12974e-21)
(-0.0192078 2.03348 0)
(-0.02989 2.45394 -3.10937e-20)
(-0.0258057 2.41062 3.51317e-21)
(-0.0327263 2.48321 1.43336e-21)
(-0.0229627 2.63072 1.80613e-20)
(-0.0256971 2.57348 -1.67342e-21)
(-0.0224947 2.52441 5.55121e-21)
(-0.0195049 2.62573 -4.87122e-21)
(-0.0241582 2.62656 7.10974e-21)
(-0.00859351 1.48333 -5.84499e-22)
(0.00577968 1.61943 -3.67263e-21)
(0.365076 1.42911 -9.56335e-20)
(0.36427 1.36877 5.57394e-20)
(0.646661 1.41496 -2.12097e-19)
(0.515334 1.48104 -1.28899e-19)
(0.569649 1.45044 0)
(0.592448 2.42321 2.14906e-19)
(0.660367 2.41624 3.42881e-19)
(0.410232 2.51548 8.43845e-20)
(0.40304 2.54345 -6.45208e-19)
(0.511174 2.48856 6.31259e-19)
(0.55179 2.46089 0)
(0.488544 2.51575 -5.72278e-19)
(0.248278 2.59027 1.19493e-18)
(0.353417 2.56377 -8.15801e-20)
(0.284137 2.65181 -1.6401e-18)
(0.944352 2.38071 7.36584e-19)
(0.836523 2.38308 0)
(1.011 0.000432257 2.70266e-20)
(1.01525 -0.00549223 -2.19407e-20)
(1.01764 -0.00362962 -4.00835e-19)
(1.01493 -0.000955926 4.02688e-19)
(1.01235 0.00105404 0)
(0.634699 1.28334 0)
(0.65524 1.18122 0)
(0.761763 1.0914 0)
(0.648151 1.14424 0)
(1.18682 2.62304 5.84336e-20)
(1.075 2.36827 0)
(0.839062 2.18781 3.93132e-21)
(0.825568 2.44838 0)
(0.92274 2.53969 -4.36295e-19)
(0.958148 2.49556 2.90405e-19)
(0.815263 0.168191 0)
(0.777824 0.139552 1.6683e-19)
(0.922833 0.142213 9.70794e-19)
(0.838719 0.144672 -3.6268e-19)
(0.808373 0.0828947 -1.11824e-18)
(1.07735 0.230058 -9.39471e-19)
(0.992981 0.287777 -1.56903e-20)
(0.92568 0.287871 8.98871e-19)
(1.0017 0.218967 7.51565e-19)
(0.952963 0.185745 -1.29143e-18)
(0.917358 0.18772 1.61447e-19)
(0.95325 0.25085 -3.45456e-19)
(0.9313 0.213573 0)
(0.991991 0.18152 6.37486e-19)
(1.04278 0.183406 0)
(1.03995 0.209322 0)
(1.10596 0.116659 3.01881e-19)
(1.06635 0.172429 -1.41829e-20)
(1.07211 0.231173 -1.65081e-19)
(1.10417 0.199481 0)
(1.02269 0.0448574 6.3922e-19)
(1.04088 0.0573962 7.97561e-19)
(1.03412 0.0436978 -6.34038e-19)
(1.04305 0.0639657 -5.34405e-19)
(1.01931 0.0718343 -8.17579e-19)
(0.987776 0.154663 0)
(0.998855 0.102587 0)
(0.96672 0.0650209 -5.20466e-19)
(0.915564 0.0880973 2.04424e-19)
(1.03821 0.102117 7.38979e-19)
(1.0677 0.119811 -8.71607e-19)
(1.07211 0.152022 7.78485e-19)
(1.02927 0.140767 0)
(1.07378 0.106675 0)
(1.05465 0.0889711 -3.5587e-19)
(1.0446 0.0936924 -6.04939e-19)
(0.580515 1.07617 1.44673e-19)
(0.613114 1.40907 -4.62891e-20)
(1.15747 2.74014 -2.34473e-19)
(1.22407 3.08104 2.92086e-21)
(1.24952 2.72214 -1.4854e-19)
(1.27957 2.70587 -2.2671e-20)
(1.2076 2.34602 -1.01839e-20)
(1.21133 2.9851 -9.88797e-20)
(1.23065 2.95038 2.43385e-19)
(1.21502 3.2345 -1.41414e-19)
(1.37575 2.96636 1.95566e-19)
(1.36615 2.88448 0)
(0.548228 0.841585 -5.09323e-20)
(0.134799 1.25155 5.84969e-19)
(0.534582 0.43936 6.16521e-19)
(0.37321 0.190321 6.7996e-19)
(0.52384 0.371068 7.3632e-19)
(0.54682 0.470041 -1.1836e-18)
(0.548247 0.470992 9.66447e-19)
(0.494782 0.389212 -3.72291e-19)
(0.413182 0.32099 8.437e-19)
(0.73784 0.248307 -3.7174e-19)
(0.70194 0.276325 0)
(0.679367 0.198527 8.99096e-21)
(0.732224 0.50703 3.91451e-19)
(0.70446 0.477215 -1.42731e-18)
(0.616089 0.468024 1.49598e-20)
(0.625513 0.455803 0)
(0.679353 0.729542 4.12023e-19)
(0.833252 0.773214 4.21704e-19)
(0.756428 0.85534 -4.92642e-19)
(0.876933 0.808428 -1.68281e-19)
(0.906601 0.851755 -4.23717e-20)
(0.914347 0.852194 4.33918e-20)
(0.849238 0.644764 -7.30634e-19)
(0.928786 0.702748 1.56352e-19)
(0.983792 0.716529 0)
(0.975175 0.692165 -2.14352e-19)
(1.02239 0.324601 2.27446e-19)
(1.14248 0.294442 3.13869e-19)
(1.06438 0.26465 3.84273e-19)
(1.01092 0.356969 -4.5705e-19)
(1.05777 0.421009 0)
(1.11085 0.406161 0)
(0.915878 0.356697 6.32554e-21)
(0.84079 0.288815 0)
(0.877306 0.284396 4.22921e-19)
(0.907382 0.293841 -4.5464e-21)
(0.945459 0.427622 2.19779e-18)
(0.903529 0.487102 5.68811e-19)
(0.906757 0.450783 -6.03433e-19)
(0.823573 0.434367 6.46404e-19)
(0.806765 0.428853 3.87716e-19)
(0.776791 0.412118 -3.81032e-19)
(1.0272 -0.000520773 6.67764e-19)
(1.02 -0.000134122 0)
(1.01849 0.000793026 4.35183e-19)
(1.02155 -0.00180229 -9.85878e-19)
(1.0223 0.00424592 4.78993e-19)
(1.02041 0.0111374 -1.00309e-18)
(1.02138 0.0105355 0)
(1.02067 0.0108195 -2.08994e-19)
(1.01599 0.00764817 5.24281e-19)
(1.01672 0.010412 -2.61583e-19)
(1.01743 0.00975897 1.92663e-19)
(0.028763 1.31447 0)
(0.0336836 1.35155 0)
(0.0427884 1.31787 0)
(0.0407751 1.2749 0)
(0.0704377 1.37848 1.20907e-20)
(0.0769354 1.35067 3.45274e-21)
(0.111705 1.50922 -2.90041e-20)
(0.0942539 1.36017 8.4185e-21)
(0.0341741 1.44991 -3.19338e-20)
(0.0378815 1.44281 2.49617e-20)
(0.061572 1.3625 -7.93323e-21)
(0.0540712 1.36422 3.45081e-21)
(0.0458369 1.33988 3.26689e-22)
(0.0381827 1.36182 -2.7811e-21)
(0.107924 2.37212 -1.81365e-19)
(0.0969774 2.41929 0)
(0.171463 2.04779 1.19156e-19)
(0.11019 1.71043 5.24898e-20)
(0.229993 2.0443 -9.77451e-20)
(0.205058 2.43704 0)
(0.265294 2.38848 -6.28035e-19)
(0.303124 2.38653 4.45545e-19)
(0.230581 2.0042 -2.71763e-19)
(0.154405 2.16502 1.79337e-19)
(0.144484 2.27664 0)
(0.0204413 1.87286 -3.94776e-20)
(-0.000198728 2.39873 -8.92886e-20)
(0.00610201 2.15115 0)
(0.0131717 2.45991 -1.4036e-20)
(0.0287481 2.30395 3.1519e-20)
(0.0247266 1.3914 -1.37953e-21)
(0.0207243 1.37871 2.73589e-20)
(0.0197771 1.38184 -1.29222e-20)
(0.0253097 1.38045 -3.1486e-21)
(0.0301388 1.41144 0)
(0.0170943 1.36208 0)
(0.00219516 1.28468 -1.30946e-20)
(0.0130992 1.3525 2.82173e-21)
(0.0134873 1.35378 0)
(0.0163668 1.28184 -1.00579e-20)
(0.018216 1.21402 2.11655e-20)
(1.04036 0.0112254 0)
(1.0464 0.00750363 -7.00256e-20)
(1.03855 0.020812 -5.04632e-19)
(1.04802 0.0197112 0)
(1.05177 0.0195328 0)
(1.03629 0.0112537 -6.6576e-21)
(1.03093 0.0111237 8.10084e-19)
(1.0318 0.016075 9.82524e-19)
(1.02583 0.0200164 0)
(1.02304 0.0204104 0)
(1.03516 0.0244866 5.03427e-19)
(1.02618 0.0258745 0)
(1.02441 0.0259673 0)
(-0.0206005 2.02525 0)
(0.00617607 1.6518 -5.35692e-21)
(-0.00694152 1.76015 -2.117e-20)
(0.0042871 1.36334 0)
(-0.0122218 1.54809 6.15985e-23)
(0.00503409 1.4499 1.18145e-21)
(0.00206938 1.37172 0)
(0.38952 1.66783 0)
(0.366293 1.29735 -1.03429e-19)
(0.301077 1.3416 0)
(0.419865 1.29567 4.87394e-20)
(0.46632 1.45653 0)
(0.447029 1.40133 5.42509e-21)
(1.03582 2.68729 -1.56897e-20)
(0.965639 2.41125 -9.25918e-19)
(0.915927 2.19247 1.0556e-18)
(0.850046 2.37548 2.45773e-19)
(0.847516 2.49797 0)
(0.917413 2.49432 0)
(0.927688 2.37406 0)
(0.906561 2.36059 -9.54963e-19)
(0.688849 2.46581 -4.0887e-19)
(0.801185 2.45597 -1.00442e-19)
(0.811781 2.42983 7.65495e-20)
(0.694746 2.39127 0)
(0.799645 2.3873 0)
(0.758272 2.39952 -3.73011e-19)
(0.769153 2.48754 0)
(0.615657 1.0991 0)
(0.485577 0.92684 -5.14253e-19)
(0.555215 0.961319 -3.27003e-20)
(0.522115 1.0556 0)
(0.523236 1.00515 7.72161e-19)
(0.779286 0.880205 -1.38826e-19)
(0.786906 1.01699 0)
(0.761451 0.977756 2.02469e-19)
(0.647556 1.03529 0)
(0.652363 0.943031 0)
(1.16522 2.76209 -2.39729e-19)
(1.143 2.82553 -1.02823e-19)
(0.932628 2.34553 1.0917e-19)
(0.900239 2.32359 -8.62325e-20)
(1.13011 2.73533 0)
(1.0834 2.70546 1.0381e-19)
(1.09004 2.48777 -3.24507e-19)
(0.983961 2.23621 -3.06085e-20)
(0.496636 1.35288 0)
(0.510503 1.07538 -1.27591e-19)
(0.564785 1.16682 0)
(0.858252 0.225783 0)
(0.785891 0.178536 0)
(0.726453 0.140654 0)
(0.85444 0.230823 -6.65678e-19)
(0.757454 0.214956 3.90162e-19)
(0.931066 0.0747306 -4.22216e-19)
(0.946532 0.120836 0)
(0.926001 0.134317 1.80973e-19)
(0.865373 0.109667 7.26434e-19)
(0.835382 0.0672436 -4.5451e-19)
(1.16179 3.35979 -7.16624e-19)
(1.20978 3.27909 0)
(1.15993 3.38789 -1.47816e-18)
(0.647543 3.54866 1.25564e-18)
(0.872195 3.11605 6.48607e-20)
(0.519083 0.847268 6.14317e-19)
(0.433982 0.843078 0)
(0.335649 0.476169 -1.55635e-19)
(0.455872 0.6768 8.83084e-19)
(0.537676 0.444084 -2.13202e-19)
(0.51019 0.502496 2.44151e-19)
(0.66376 0.526642 5.27931e-19)
(0.694327 0.550437 0)
(0.64778 0.606771 0)
(0.60471 0.54723 0)
(0.991558 0.600791 1.04773e-19)
(0.90757 0.536347 -5.53424e-19)
(0.933441 0.571108 4.2212e-19)
(0.967901 0.506452 -4.27786e-19)
(1.07195 0.478878 0)
(1.07943 0.569183 -1.07452e-19)
(0.846815 0.386786 -8.84095e-19)
(0.849812 0.374894 -1.09257e-18)
(0.795651 0.378165 6.89416e-19)
(0.792753 0.348751 -7.0501e-19)
(0.84244 0.308627 -5.50914e-19)
(0.793942 0.306527 6.76191e-19)
(1.02669 0.00568712 -5.12132e-19)
(1.02641 0.00591516 1.04411e-18)
(1.02933 -0.000121173 6.4748e-19)
(1.03337 0.000756554 -7.79908e-19)
(1.03356 0.00859037 0)
(1.03007 0.00917917 -1.26798e-18)
(0.0650738 1.64433 2.86192e-20)
(0.045654 1.57441 0)
(0.0877332 1.6963 1.76958e-19)
(0.0974446 1.67727 -1.57259e-19)
(0.0890236 1.52707 5.44132e-20)
(0.0867774 1.50898 0)
(0.0153318 1.67652 0)
(0.00285681 1.47874 -2.15379e-21)
(0.00327065 1.42159 1.9391e-21)
(-0.00471795 1.54069 4.69587e-21)
(0.00286289 1.88314 -4.86228e-21)
(-0.0119867 1.93613 5.61111e-21)
(0.49574 1.37128 -2.93643e-19)
(0.489536 1.37451 3.2194e-19)
(0.444492 1.29267 -5.03231e-20)
(0.433663 1.29184 8.95366e-21)
(0.626419 1.29902 0)
(0.543994 1.38702 8.18107e-20)
(0.559457 1.39539 -7.96348e-20)
(0.455246 1.27858 4.89265e-20)
(0.50968 1.23362 0)
(0.562174 1.20028 0)
(0.655231 2.42449 6.0079e-19)
(0.669624 2.46133 1.2963e-18)
(0.715715 2.47333 -8.93031e-19)
(0.614799 2.44837 -2.09535e-19)
(0.560014 2.541 2.92253e-19)
(0.509672 2.51436 -7.79066e-19)
(0.97639 2.38068 -5.90869e-19)
(1.01255 2.39428 0)
(0.922477 2.17064 -6.84367e-19)
(1.05356 2.68473 0)
(1.05576 2.6715 0)
(0.612094 2.27303 -1.21971e-19)
(1.04275 3.16268 1.30655e-19)
(0.913699 3.03266 -3.42446e-20)
(0.280103 0.905405 0)
(0.318983 0.763865 -3.24452e-19)
(0.480407 0.720974 -3.27025e-19)
(0.389523 2.01958 0)
(0.466969 2.78474 -4.51513e-20)
(0.423174 2.54846 0)
(0.695188 0.677152 -8.73767e-19)
(0.77778 0.678389 1.19129e-18)
(0.798354 0.621151 -1.1796e-18)
(0.67572 0.63997 -1.13045e-19)
(0.731087 0.592899 -4.68214e-19)
(1.00522 2.76558 -9.93504e-20)
(1.04268 2.82282 -1.72484e-19)
(0.640486 2.14876 6.76535e-19)
(0.597209 1.71447 -4.81605e-19)
(0.700519 1.90742 -4.14163e-19)
(0.990881 2.449 -1.14738e-19)
(0.995775 2.44257 3.06015e-19)
(0.661428 1.84609 2.86678e-20)
(0.452927 1.33475 1.49063e-19)
)
;

boundaryField
{
    wall-4
    {
        type            noSlip;
    }
    velocity-inlet-5
    {
        type            fixedValue;
        value           uniform (1 0 0);
    }
    velocity-inlet-6
    {
        type            fixedValue;
        value           uniform (0 3 0);
    }
    pressure-outlet-7
    {
        type            zeroGradient;
    }
    wall-8
    {
        type            noSlip;
    }
    frontAndBackPlanes
    {
        type            empty;
    }
}


// ************************************************************************* //
