/*--------------------------------*- C++ -*----------------------------------*\
| =========                 |                                                 |
| \\      /  F ield         | OpenFOAM: The Open Source CFD Toolbox           |
|  \\    /   O peration     | Version:  4.0                                   |
|   \\  /    A nd           | Web:      www.OpenFOAM.org                      |
|    \\/     M anipulation  |                                                 |
\*---------------------------------------------------------------------------*/
FoamFile
{
    version     2.0;
    format      ascii;
    class       volVectorField;
    location    "30";
    object      U;
}
// * * * * * * * * * * * * * * * * * * * * * * * * * * * * * * * * * * * * * //

dimensions      [0 1 -1 0 0 0 0];

internalField   nonuniform List<vector> 
918
(
(0.985168 -0.000494687 0)
(0.00501163 2.96625 0)
(-0.0590184 1.22867 0)
(0.979698 0.00215208 0)
(0.00351484 1.2997 1.54229e-19)
(-0.00704239 2.94879 -2.15476e-18)
(0.834868 1.17911 5.88996e-19)
(0.355677 0.163298 -1.24676e-20)
(0.999905 -0.000293985 0)
(0.0634845 0.857504 0)
(0.0148971 0.681392 0)
(0.734005 -0.00964065 0)
(0.0111033 2.9304 0)
(0.00211056 2.79498 0)
(-0.0176962 3.15804 9.36244e-19)
(-0.125438 1.43197 8.86909e-20)
(0.439969 0.0576809 8.02055e-19)
(0.189006 1.20423 4.78505e-19)
(0.962771 0.00501963 0)
(-0.0369822 0.705429 0)
(0.0867889 0.200462 -5.95925e-19)
(1.00198 -0.00498574 0)
(1.00021 -0.00980418 0)
(0.975708 -0.00643888 0)
(0.598814 -0.0441656 0)
(0.0164422 2.63783 0)
(-0.0150034 2.91011 7.70768e-19)
(-0.122241 1.09341 0)
(-0.192814 1.37741 0)
(-0.0840305 1.16781 0)
(-0.0588003 2.30988 0)
(0.0770841 1.41374 -1.21572e-19)
(0.0167782 1.01344 0)
(-0.0206176 2.9876 -7.65013e-23)
(-0.0166925 3.00529 1.67471e-18)
(0.00210013 3.00019 0)
(0.870256 -0.00935711 0)
(0.404918 0.940419 7.13532e-20)
(0.815973 1.19529 -7.64836e-19)
(0.965965 1.03376 7.53581e-19)
(0.685082 1.28892 -1.36702e-19)
(0.68286 1.27602 7.72895e-19)
(0.396676 0.253514 1.21637e-20)
(0.381162 0.138077 0)
(1.14972 0.558049 0)
(0.357693 0.253966 5.5835e-20)
(0.312558 0.167634 -5.79451e-20)
(0.919639 -0.00749064 0)
(1.00028 0.000134512 0)
(0.999912 0.000330073 0)
(1.00364 -0.00778459 0)
(1.00096 -0.000933582 0)
(1.00017 2.36881e-05 0)
(0.0795829 1.78262 -4.88321e-19)
(0.0329509 1.01171 0)
(0.0802618 0.922689 0)
(0.0269646 0.946873 0)
(0.0254252 0.78658 0)
(0.0271485 1.99985 0)
(-0.00817346 0.81911 0)
(0.000494959 0.691798 0)
(-0.00732007 0.785187 0)
(-0.00967141 0.647526 0)
(0.835323 -0.0143258 0)
(0.85261 0.0263603 0)
(0.768082 -0.000418828 0)
(0.82705 0.0348369 0)
(0.701405 -0.0148448 0)
(0.0146891 3.0004 7.94208e-19)
(0.0114985 3.00798 0)
(0.00611804 3.00279 0)
(0.0135286 2.99734 8.9389e-24)
(0.00798277 2.95848 -1.18039e-18)
(0.014487 2.98208 0)
(0.0108369 2.9036 0)
(0.0245455 2.9308 1.70715e-24)
(0.00449788 2.82506 0)
(0.030639 2.91615 0)
(-0.00534264 2.74457 0)
(0.308936 3.55556 0)
(-0.132034 3.63713 0)
(0.139853 3.2487 -8.71286e-19)
(-0.0125069 2.98371 0)
(-0.29381 2.12814 0)
(-0.141605 1.652 -8.36145e-20)
(-0.123374 1.66715 4.79792e-20)
(0.518646 0.151166 -2.7692e-19)
(0.438205 0.0335948 -2.67563e-19)
(0.502323 0.17678 -8.35348e-19)
(0.423237 0.0808499 -5.54715e-19)
(0.215791 0.921114 0)
(0.269854 1.34239 -5.23643e-19)
(0.380553 1.2884 8.66196e-19)
(0.987482 0.00850511 0)
(0.941989 0.00583875 0)
(1.0003 0.000570699 0)
(1.00287 0.00929771 0)
(1.00304 0.00844479 -1.8973e-18)
(0.991921 0.00970953 1.43272e-18)
(-0.0298022 0.793245 0)
(-0.011295 0.63607 0)
(-0.118397 1.06897 0)
(-0.037433 0.853243 0)
(-0.019917 0.786142 0)
(0.134664 0.20853 1.84316e-19)
(0.189293 0.187096 0)
(0.993522 -0.00840826 0)
(0.954372 -0.00652135 0)
(0.78203 0.0392888 0)
(0.729836 0.0479987 0)
(0.66145 -0.0327691 0)
(0.950403 -0.00547141 0)
(0.65812 0.0616248 0)
(0.492706 -0.02088 1.12434e-18)
(-0.0367913 2.86314 4.93457e-19)
(0.0420154 2.90892 0)
(0.0547073 2.88498 0)
(-0.0049122 2.69894 0)
(-0.0130676 2.98535 7.19959e-19)
(-0.0179781 2.8953 0)
(-0.0153217 2.98812 -2.25281e-18)
(-0.0133488 2.92524 7.7427e-19)
(-0.284908 1.3778 0)
(-0.291155 1.55743 0)
(-0.0802836 1.446 5.66936e-21)
(-0.0013651 1.32539 0)
(-0.0663781 1.1707 0)
(0.937549 -0.00771763 0)
(0.855582 -0.00964877 0)
(0.863815 0.00682632 0)
(0.948875 -0.0080866 0)
(0.883423 -0.00812875 0)
(0.5174 1.13433 -9.6026e-20)
(0.567116 1.18571 0)
(0.368219 0.884606 1.87426e-20)
(0.310309 0.744663 0)
(0.925513 1.0717 -2.13685e-19)
(1.03924 0.874362 4.33454e-19)
(0.374785 1.38366 0)
(0.537417 1.35284 0)
(0.544265 1.31108 0)
(0.106775 0.178962 -2.15337e-19)
(0.434625 0.233352 0)
(0.405362 0.122584 1.5737e-19)
(1.00964 0.928632 0)
(1.0762 0.776487 0)
(1.10192 0.718923 -3.62014e-19)
(1.12925 0.617793 0)
(1.17502 0.401986 5.61167e-20)
(0.95734 -0.00883133 0)
(0.962269 -0.0100864 0)
(0.901349 -0.00807318 0)
(0.984129 -0.00920527 0)
(0.974565 -0.00935497 0)
(0.936982 -0.00640534 0)
(1.00019 0.00232244 0)
(1.00091 0.00142176 0)
(0.999906 0.000844226 0)
(0.0345076 2.0474 2.8319e-19)
(0.122731 1.72582 0)
(0.0191394 2.16552 3.72687e-19)
(0.0482943 1.84132 -2.76411e-19)
(0.122838 1.19995 -3.94914e-19)
(0.0434767 1.08161 0)
(0.127475 1.06995 0)
(0.0268155 0.901 0)
(0.0204715 0.72101 0)
(-0.0117368 2.1852 9.19365e-22)
(0.0320034 1.99036 0)
(-0.0145987 2.15043 6.91587e-20)
(0.0334061 2.00478 -1.4406e-19)
(0.0156412 0.861857 0)
(-0.00132538 0.834978 0)
(0.00385452 0.691956 0)
(-0.0108064 0.764688 0)
(-0.0240208 0.628355 0)
(0.93274 0.00773696 0)
(0.841419 -0.0155243 0)
(0.924001 -0.000468585 0)
(0.838266 -0.0112162 0)
(0.813568 0.00364461 0)
(0.903504 0.0187173 0)
(0.881624 0.0221897 0)
(0.790331 0.00243588 0)
(0.00571626 3.06484 -7.21122e-21)
(0.0166622 3.05789 0)
(0.0147063 2.96908 0)
(0.00858395 2.87624 0)
(0.926697 3.97289 0)
(1.24175 3.30519 9.73672e-19)
(0.070347 3.07581 0)
(-0.027849 2.90654 0)
(-0.365406 1.62133 0)
(-0.364258 2.05633 0)
(-0.341957 1.84387 0)
(-0.162874 2.35079 -7.75918e-20)
(-0.274483 2.2729 0)
(-0.203389 2.22598 0)
(-0.0388299 1.94092 -4.08493e-21)
(-0.0923443 1.99915 -6.06812e-20)
(-0.126431 1.84251 -4.90923e-20)
(-0.106755 1.84426 0)
(0.546594 0.123623 4.11822e-19)
(0.454601 0.00932172 -4.03792e-19)
(0.261187 1.55523 0)
(0.263326 0.69666 -2.57659e-19)
(0.177199 1.64168 -8.66532e-19)
(0.225194 1.16908 8.68745e-19)
(0.902484 0.00668179 0)
(0.967619 0.0109624 0)
(0.974692 0.010722 0)
(0.923609 0.00655068 0)
(0.00601225 0.747242 0)
(-0.0157181 0.757087 0)
(-0.0227749 0.623323 0)
(0.302857 0.246826 5.11629e-19)
(0.246506 0.224056 -6.07353e-19)
(0.260518 0.179529 0)
(1.0786 0.0862908 1.17365e-20)
(1.06103 0.0403415 0)
(0.992998 0.0398869 0)
(0.888703 -0.00400207 0)
(0.570055 0.0953916 0)
(0.599484 0.0721114 -1.80386e-18)
(0.470299 -0.00219778 6.81846e-19)
(0.00920018 2.98139 5.62732e-19)
(-0.0325204 2.86647 4.76334e-20)
(0.00367144 3.05019 -1.54048e-20)
(0.0201498 3.04344 5.50936e-19)
(-0.0150154 2.99658 2.55682e-20)
(-0.0129629 2.94948 -1.03184e-22)
(-0.0172507 3.01196 -4.78534e-19)
(0.0148209 3.02393 3.45952e-19)
(0.00733008 3.03673 -5.44471e-19)
(0.931715 -0.00225948 0)
(0.937882 -0.00372797 0)
(0.843261 -0.00880507 0)
(0.956902 0.0115606 0)
(0.943349 0.0126999 0)
(0.882036 0.00638553 0)
(0.91917 0.015406 0)
(0.927131 0.0141227 0)
(0.839641 0.00506456 0)
(0.721322 1.41318 1.89972e-19)
(0.754968 1.52237 0)
(0.19766 0.347242 4.88226e-20)
(0.208025 0.64561 3.93209e-19)
(0.255064 0.71742 -2.27579e-19)
(0.27202 0.551637 4.44827e-19)
(0.318005 0.755752 1.1578e-18)
(0.123696 0.209335 2.88282e-19)
(0.477766 0.200001 5.91175e-19)
(0.455758 0.214978 1.51329e-19)
(0.413848 0.105232 2.95176e-19)
(1.16411 0.459428 1.68265e-19)
(1.17562 0.253765 1.71243e-19)
(0.00951944 2.20793 1.1948e-19)
(0.0473911 1.90867 0)
(0.955351 0.0281571 0)
(0.932942 0.011908 0)
(0.853968 -0.0166761 0)
(0.0111186 3.07434 0)
(0.0197089 2.94407 9.79824e-19)
(0.0164679 2.95633 0)
(0.00629617 2.85071 -9.71867e-19)
(0.00626869 3.09116 2.35261e-19)
(0.00730046 3.08277 0)
(0.788168 1.82531 -2.01576e-19)
(1.24957 2.50383 5.39658e-19)
(0.770351 1.96511 -1.37037e-18)
(0.0203151 2.9818 -4.56929e-19)
(0.0362523 3.00276 0)
(-0.0332758 2.87921 0)
(-0.0266774 2.12037 7.37557e-22)
(-0.0443342 2.07181 1.3824e-19)
(0.000355369 1.98729 2.22489e-21)
(0.275119 1.3624 8.40817e-19)
(0.216723 0.478086 -5.77995e-19)
(0.0633934 1.97041 6.067e-19)
(0.138396 1.86126 -7.36369e-19)
(0.176704 1.46291 8.73321e-20)
(0.0026605 3.1183 -1.43394e-18)
(0.0171633 3.11783 1.53486e-18)
(-0.00896483 2.98107 6.45466e-19)
(-0.00310379 2.9775 -5.94012e-19)
(-0.0213002 2.88171 -6.57388e-19)
(0.00868399 3.09928 -1.73785e-18)
(0.00224756 3.10662 1.69241e-18)
(0.261771 0.666806 0)
(0.219541 0.655673 -8.04958e-19)
(0.102363 0.220444 3.58414e-19)
(0.337472 0.878254 8.63263e-19)
(0.17883 0.250157 -1.32755e-18)
(1.16581 0.173447 5.10617e-21)
(1.17638 0.308001 0)
(1.1536 0.121046 5.21416e-20)
(-0.0069659 2.20517 3.69137e-22)
(-0.00277298 2.20909 0)
(0.0361486 1.95975 0)
(0.336686 1.26345 -3.0439e-19)
(0.359742 1.08746 -6.52658e-19)
(0.190991 0.34395 1.14513e-18)
(1.00586 -0.0108781 0)
(1.00766 -0.00767541 3.48992e-19)
(-0.283358 1.37976 0)
(-0.26296 1.20428 0)
(1.00221 0.00347353 1.77529e-21)
(1.00369 0.00944645 7.14054e-19)
(-0.169934 2.37923 9.68336e-20)
(-0.174199 2.41603 0)
(0.0368566 3.17964 2.57336e-19)
(0.396226 3.4934 0)
(1.13116 0.652783 -1.81713e-22)
(1.01301 0.0129594 -2.15374e-21)
(1.02117 -0.0105127 0)
(1.00171 0.000143204 7.54275e-23)
(0.099878 1.35452 0)
(0.142768 2.57922 0)
(0.056231 1.27198 0)
(0.000684628 2.62091 -7.92168e-20)
(-0.0263881 2.57994 -8.35631e-20)
(1.00482 0.0282284 2.67858e-21)
(1.06122 0.00167813 0)
(1.08874 0.014223 0)
(-0.349576 2.05512 0)
(-0.236727 2.55095 0)
(-0.08146 1.0556 0)
(0.278107 1.46293 -3.04875e-19)
(1.01124 -0.00970746 0)
(1.00936 -0.0149591 0)
(1.00239 0.000724716 4.45297e-19)
(1.00548 -0.00484939 -5.24077e-19)
(1.00117 -0.00104162 0)
(-0.37672 1.81811 0)
(-0.335132 1.41347 0)
(-0.348606 1.64309 0)
(-0.089647 1.02359 0)
(-0.174065 1.06385 0)
(-0.0944554 0.968666 0)
(1.03417 -0.00684618 0)
(1.02094 0.015647 -9.5493e-22)
(0.792114 1.256 3.88475e-19)
(1.00231 0.000317623 -4.44596e-19)
(1.00407 0.00522401 5.21037e-19)
(1.00116 0.00204064 0)
(1.01285 0.0102456 4.39377e-19)
(1.00807 0.00828161 -5.36203e-19)
(1.00861 0.0146915 0)
(-0.234028 2.57155 0)
(-0.216612 2.52196 -2.66778e-19)
(-0.239041 2.49924 1.95621e-19)
(1.2058 0.261337 2.60988e-19)
(1.14341 0.0818824 0)
(0.0463565 3.07756 -7.10604e-19)
(0.0661665 2.85327 -5.36374e-20)
(0.143144 3.19433 1.1056e-18)
(0.138155 3.22331 -9.72729e-20)
(0.13628 3.23599 0)
(0.0206665 3.13771 1.72368e-19)
(0.0776303 3.16111 6.97662e-19)
(0.0704853 3.18721 -3.2762e-19)
(0.0234078 3.12953 0)
(0.660973 0.302659 0)
(0.576023 0.367704 0)
(1.10339 0.682259 -4.6986e-20)
(1.10041 0.813826 1.20101e-19)
(1.16001 0.5703 0)
(1.18977 0.512627 0)
(1.0162 0.0132219 -8.16986e-19)
(1.01499 0.0142308 1.02393e-18)
(1.02506 -0.0100206 0)
(1.02309 -0.0120742 0)
(1.00645 0.00260154 0)
(1.01037 0.00367388 0)
(1.00443 0.0019048 0)
(1.00981 0.00601589 0)
(1.00795 0.00592891 0)
(1.00448 0.00466395 0)
(0.091563 1.34979 0)
(0.0843569 1.31776 0)
(0.113387 1.38274 0)
(0.127323 1.40429 0)
(0.144711 2.60252 0)
(0.186695 2.66417 -3.14461e-19)
(0.102686 2.65953 0)
(0.0848748 2.66225 8.49496e-20)
(0.0415664 2.67661 1.69193e-20)
(0.0769044 1.25235 0)
(0.0703923 1.15195 0)
(0.0306888 1.30772 0)
(0.020061 1.26061 0)
(-0.0133727 1.97999 1.01648e-19)
(-0.035997 2.60466 -1.28137e-19)
(-0.0155445 2.66414 -1.41979e-19)
(-0.0245736 2.6712 0)
(-0.0506604 2.61024 2.38273e-19)
(-0.0419202 2.59979 1.40766e-19)
(-0.0131773 1.97872 -7.3829e-20)
(-0.0334844 2.42495 1.71818e-19)
(-0.0145994 2.43015 1.60982e-19)
(1.01395 0.0346366 8.26161e-19)
(1.00865 0.0176352 -1.01948e-18)
(1.00561 0.0418285 -8.32559e-19)
(0.985637 0.0233673 1.06265e-18)
(1.06204 0.00575099 0)
(1.04753 -0.00952545 0)
(1.0876 0.0247811 0)
(1.07021 0.00817204 0)
(1.06703 -0.00273242 0)
(1.12657 0.0725246 0)
(1.10041 0.0352768 0)
(1.10183 0.0255381 0)
(-0.21403 2.43575 2.13251e-20)
(-0.354315 2.29624 0)
(-0.279985 2.32031 0)
(-0.200945 2.60628 -1.23091e-19)
(-0.143354 2.5591 1.63889e-21)
(-0.283286 1.97238 -3.43504e-19)
(-0.323708 1.83292 3.45126e-19)
(-0.161457 1.37162 0)
(-0.2749 1.40113 0)
(-0.313782 1.44126 0)
(-0.0142053 1.04531 0)
(-0.0235667 0.938305 0)
(0.372832 1.47628 5.60132e-19)
(0.406689 1.48638 2.38133e-19)
(0.59392 2.45041 -1.93862e-19)
(0.405621 2.54329 5.51696e-19)
(0.35462 2.08219 7.19019e-21)
(1.02081 -0.00831048 0)
(1.01539 -0.00988027 0)
(1.01482 -0.0156444 0)
(1.00749 -0.00133094 0)
(1.00498 -0.0010105 0)
(1.00775 -0.00484716 0)
(1.00921 -0.0038739 0)
(1.01412 -0.00458056 0)
(1.02165 0.0157838 7.92939e-19)
(1.01831 0.0157364 -1.01875e-18)
(1.02212 0.017627 -7.96911e-19)
(1.0197 0.0163577 9.99073e-19)
(0.760451 1.30554 0)
(0.693862 1.36004 4.30097e-19)
(0.869203 1.2018 2.25037e-19)
(0.912438 1.1582 -2.99522e-19)
(1.16003 2.61105 -1.44567e-19)
(0.821333 0.0958762 4.43703e-19)
(1.1432 0.100558 0)
(1.18595 0.186818 -2.07034e-19)
(1.17098 0.155727 -8.62255e-21)
(1.00458 0.131151 0)
(0.139299 2.96293 3.30872e-19)
(0.116408 2.86871 -9.10367e-19)
(0.0281726 2.36924 6.2838e-19)
(0.093472 0.0166037 -2.73632e-19)
(0.340871 3.42237 -3.30403e-19)
(0.195116 3.31494 0)
(0.237578 3.35716 4.30294e-19)
(0.247154 3.03596 -1.26056e-18)
(0.341991 3.19474 0)
(0.00602225 3.12102 3.58538e-20)
(0.0162536 3.12979 -4.36473e-19)
(0.0144281 3.12579 6.42404e-19)
(0.0359888 3.14016 0)
(0.034617 3.15081 0)
(1.21823 2.61072 0)
(0.538057 0.842334 -3.81447e-19)
(1.0322 0.984917 -1.00581e-19)
(0.970308 1.05507 0)
(0.815746 0.957966 -2.75224e-20)
(1.05529 0.872418 2.98264e-20)
(0.369333 0.415963 -7.19736e-19)
(0.70247 0.323929 -2.23354e-20)
(0.687893 0.254331 3.28179e-19)
(0.591883 0.396991 2.46471e-20)
(0.511388 0.373079 -9.974e-19)
(0.672262 0.343247 0)
(0.697211 0.429711 5.49467e-19)
(0.704321 0.427161 0)
(0.629146 0.382304 0)
(0.609092 0.310719 0)
(0.782634 0.616172 2.76528e-19)
(1.2022 0.27982 -2.31181e-19)
(1.19795 0.414782 0)
(1.21117 0.364183 0)
(0.765356 0.197884 4.87313e-19)
(0.827897 0.539535 -2.91591e-19)
(0.733767 0.516356 4.99665e-19)
(0.926846 0.419395 -5.24617e-19)
(1.01995 0.0144933 5.46823e-19)
(1.01797 0.0141214 -5.528e-19)
(1.01595 0.015695 0)
(1.03557 -0.00643122 0)
(1.02939 -0.00890678 -5.10977e-19)
(1.02714 -0.0124939 5.05809e-19)
(1.02516 0.0093945 0)
(1.0237 0.0129962 0)
(1.01139 0.00395652 0)
(1.01432 0.00881716 0)
(1.01507 0.0037371 0)
(1.01418 0.00268281 0)
(0.0706061 1.33426 0)
(0.0675742 1.29535 0)
(0.148176 1.34081 1.71383e-19)
(0.259505 1.46042 1.70147e-19)
(0.15033 1.4341 3.59964e-19)
(0.180801 1.44153 -5.8729e-19)
(0.166846 1.37062 0)
(0.123108 1.58982 1.0978e-19)
(0.110199 1.55921 0)
(0.351794 2.03724 -1.04495e-20)
(0.351892 2.36876 4.14497e-19)
(0.182877 1.44098 -9.5799e-20)
(0.260546 1.36268 1.1125e-19)
(0.190341 1.35308 -8.92862e-20)
(0.268087 1.30313 1.20537e-19)
(0.234097 1.57396 0)
(0.259561 1.61563 -5.77563e-20)
(0.0287889 2.27236 3.51511e-20)
(0.0387212 2.66976 0)
(0.0625238 2.41089 -2.68143e-20)
(0.0537792 2.43134 0)
(0.0700945 2.67371 -9.48692e-20)
(0.0510043 2.69872 0)
(0.0583699 1.43769 1.91183e-19)
(0.014711 1.47395 0)
(0.0243758 1.39346 0)
(0.0601816 1.39636 -2.09487e-19)
(-0.00311418 2.64911 -1.97379e-20)
(0.024832 2.69729 -3.89896e-20)
(0.00931767 2.71693 -2.94344e-22)
(0.0644614 1.90186 -1.41191e-19)
(0.0167156 1.65827 -4.8473e-20)
(0.0712761 1.1353 0)
(0.0487278 1.02211 0)
(0.0290399 1.57561 -2.442e-19)
(0.0227093 1.44471 -2.30959e-19)
(0.0393133 1.5087 2.96829e-19)
(0.0291558 1.602 0)
(-0.21281 2.48025 6.79905e-19)
(-0.214701 2.61573 -2.85355e-19)
(-0.139988 2.57325 6.26323e-20)
(0.010269 1.93125 1.70424e-19)
(-0.0815346 2.53909 6.7216e-20)
(-0.0366919 2.4723 -2.01829e-19)
(1.02062 0.020236 -5.41871e-19)
(1.01744 0.0252167 5.44179e-19)
(1.01488 0.0164797 0)
(1.01822 0.0630795 7.55049e-19)
(0.996476 0.0544653 -8.72975e-19)
(0.958899 0.0402001 9.855e-19)
(1.01764 0.0948996 -1.0153e-19)
(1.04183 -0.00639349 0)
(1.04964 -0.00237194 4.79414e-19)
(1.03808 -0.0105386 -4.80109e-19)
(1.06772 0.0343429 -2.78991e-20)
(1.06242 0.0179326 2.42945e-19)
(1.06114 0.045362 0)
(1.05613 0.0394471 -8.79687e-20)
(1.03307 0.0372742 0)
(1.02696 0.0342721 0)
(1.02762 0.0122229 0)
(1.02437 0.0151921 0)
(1.03899 0.0278718 1.81981e-19)
(1.03794 0.0236579 -4.05607e-19)
(1.051 0.0282236 -1.91111e-19)
(1.04807 0.0279922 -2.12023e-19)
(1.07144 0.0516363 4.06032e-19)
(1.08794 0.0417115 0)
(1.09468 0.0884152 0)
(-0.228806 2.49099 3.28426e-19)
(-0.301871 2.31059 3.09394e-20)
(-0.290276 2.35202 0)
(-0.247854 2.51769 -3.05536e-19)
(-0.245809 2.46999 -5.09488e-20)
(-0.22623 2.51364 5.89928e-20)
(-0.0729403 2.60995 -1.13885e-19)
(-0.121705 2.59846 1.20202e-20)
(-0.0832005 2.55035 -4.63453e-20)
(-0.119574 2.60989 7.7237e-20)
(-0.0721028 2.58031 -9.49893e-20)
(-0.134091 1.66599 -8.23109e-21)
(-0.176213 2.01498 -4.68871e-19)
(0.363318 1.41293 -2.67792e-19)
(0.361037 1.35354 -1.95742e-19)
(0.641564 1.40598 -4.15975e-19)
(0.508529 1.4721 -2.3066e-19)
(0.55934 1.44613 0)
(0.589878 2.42502 1.64846e-19)
(0.657033 2.4153 2.78098e-19)
(0.411043 2.5197 8.08484e-20)
(0.405068 2.55698 -3.76738e-19)
(0.515613 2.50942 4.22076e-19)
(0.548241 2.46381 0)
(0.488239 2.51462 -4.50958e-19)
(0.24682 2.59169 8.64329e-19)
(0.352732 2.56857 -8.11134e-20)
(0.284342 2.6517 -1.22897e-18)
(0.935498 2.38496 4.74634e-19)
(0.830637 2.3876 0)
(1.01109 0.000208517 1.79466e-20)
(1.01528 -0.00553792 -1.45736e-20)
(1.01744 -0.0036577 -2.64949e-19)
(1.01484 -0.00114919 2.66776e-19)
(1.01233 0.000757222 0)
(0.628113 1.2723 0)
(0.649372 1.16605 0)
(0.750065 1.07217 0)
(0.64129 1.13425 0)
(1.18765 2.6267 5.79651e-20)
(1.07822 2.37093 0)
(0.845077 2.19775 9.24563e-22)
(0.827876 2.46485 0)
(0.922708 2.55214 -1.85783e-19)
(0.959657 2.50618 1.23777e-19)
(0.833387 0.14563 0)
(0.803146 0.133871 1.23791e-19)
(0.925216 0.122022 6.85364e-19)
(0.851348 0.119557 -2.64252e-19)
(0.832677 0.0605981 -7.99594e-19)
(1.06093 0.222242 -5.76337e-19)
(0.980347 0.275718 -1.56684e-20)
(0.910331 0.272071 6.35363e-19)
(0.995028 0.204359 5.09984e-19)
(0.946426 0.162373 -8.95432e-19)
(0.916979 0.170044 1.13318e-19)
(0.943793 0.23303 -2.35787e-19)
(0.922464 0.193204 0)
(0.991258 0.164216 4.37845e-19)
(1.03797 0.170632 0)
(1.03352 0.197066 0)
(1.09235 0.110474 1.85204e-19)
(1.06491 0.162031 -1.35158e-20)
(1.05512 0.226109 -1.01556e-19)
(1.08764 0.19542 0)
(1.02395 0.04171 4.17874e-19)
(1.04378 0.0504231 5.12087e-19)
(1.03435 0.0385441 -4.14878e-19)
(1.04575 0.0557872 -3.43566e-19)
(1.02033 0.0650416 -5.33075e-19)
(0.990299 0.135158 0)
(1.00356 0.0897459 0)
(0.973619 0.0550393 -3.52678e-19)
(0.925845 0.070731 1.41442e-19)
(1.04198 0.0910823 4.77739e-19)
(1.0676 0.110906 -5.41918e-19)
(1.07154 0.141217 4.8768e-19)
(1.03362 0.129438 0)
(1.07398 0.0963171 0)
(1.06033 0.0773997 -2.21857e-19)
(1.05072 0.0854121 -3.88773e-19)
(0.587722 1.08883 1.98176e-20)
(0.618749 1.41628 8.06494e-20)
(1.15956 2.74264 -5.94161e-20)
(1.22549 3.08344 -3.5494e-20)
(1.25116 2.72524 2.26953e-19)
(1.28143 2.7089 -1.91008e-19)
(1.20991 2.3498 -9.74813e-21)
(1.21273 2.98755 5.4378e-20)
(1.23208 2.95281 4.12453e-21)
(1.21658 3.23723 -2.07959e-19)
(1.37768 2.96939 2.87652e-19)
(1.36867 2.88774 0)
(0.542627 0.849248 -3.11225e-20)
(0.140961 1.26339 4.68907e-19)
(0.526129 0.471693 4.69789e-19)
(0.361001 0.224998 5.12887e-19)
(0.530363 0.403498 5.6126e-19)
(0.538588 0.4908 -9.05685e-19)
(0.541224 0.49591 7.4134e-19)
(0.495425 0.422011 -2.83656e-19)
(0.425318 0.36186 6.4919e-19)
(0.767689 0.254679 -2.76637e-19)
(0.727239 0.291281 0)
(0.724094 0.22766 9.97951e-21)
(0.713011 0.515315 2.8662e-19)
(0.684284 0.489578 -1.04951e-18)
(0.604933 0.488892 1.64574e-20)
(0.62199 0.473672 0)
(0.668758 0.738474 2.7251e-19)
(0.812495 0.768556 2.26817e-19)
(0.742207 0.852074 -2.69517e-19)
(0.855088 0.800482 -8.81044e-20)
(0.887606 0.839655 -1.2431e-20)
(0.895938 0.841463 1.27247e-20)
(0.821884 0.643222 -4.62435e-19)
(0.899197 0.694599 8.1842e-20)
(0.957407 0.707644 0)
(0.946075 0.683774 -1.09961e-19)
(1.00609 0.317027 1.41008e-19)
(1.115 0.28891 1.51483e-19)
(1.04529 0.259764 2.35481e-19)
(0.986137 0.35009 -2.92964e-19)
(1.02866 0.41664 0)
(1.08316 0.404472 0)
(0.898476 0.349575 4.71126e-21)
(0.837737 0.284178 0)
(0.858881 0.274367 3.08137e-19)
(0.894674 0.278336 -6.33548e-21)
(0.918031 0.422589 1.45431e-18)
(0.874823 0.484339 3.73312e-19)
(0.880274 0.449242 -4.19573e-19)
(0.81132 0.437287 4.49861e-19)
(0.793216 0.431937 2.81315e-19)
(0.764872 0.417129 -2.7638e-19)
(1.0272 -0.000647556 4.38585e-19)
(1.02013 -0.000293687 0)
(1.0186 0.00058769 2.86664e-19)
(1.02112 -0.0021375 -6.48093e-19)
(1.02247 0.00415196 3.15211e-19)
(1.02048 0.0108114 -6.60185e-19)
(1.02148 0.0102261 0)
(1.02087 0.0104621 -1.38106e-19)
(1.01613 0.00738228 3.4643e-19)
(1.01681 0.0101701 -1.72917e-19)
(1.01747 0.00954563 1.27344e-19)
(0.0481106 1.31752 0)
(0.0344795 1.36763 0)
(0.0503873 1.31911 0)
(0.0313636 1.27824 0)
(0.0760261 1.37062 -3.81949e-19)
(0.0847884 1.34111 1.2368e-19)
(0.101678 1.49549 7.6447e-20)
(0.0917712 1.33672 -8.7593e-20)
(0.0275209 1.45405 2.22713e-19)
(0.0320519 1.44532 -1.71741e-19)
(0.0641918 1.35244 -5.43222e-21)
(0.0554969 1.35522 2.40329e-19)
(0.049141 1.33492 3.47362e-20)
(0.0319805 1.36662 2.92521e-20)
(0.10429 2.38682 3.16541e-20)
(0.0945383 2.43002 0)
(0.161627 2.06625 3.19636e-20)
(0.106707 1.70731 -3.58983e-20)
(0.225828 2.06029 -2.57186e-20)
(0.211874 2.45646 0)
(0.268517 2.40975 -3.34514e-19)
(0.303289 2.40906 2.38839e-19)
(0.229016 2.01918 -6.9794e-20)
(0.148591 2.18554 7.22373e-20)
(0.143871 2.30756 0)
(0.0287695 1.88328 2.46904e-19)
(-0.0075432 2.40662 1.95264e-19)
(-0.0215662 2.15292 0)
(0.00304363 2.46434 -1.28031e-20)
(0.0285087 2.31449 -1.07022e-19)
(0.0990971 1.4364 -4.01557e-20)
(0.14143 1.37033 6.97817e-19)
(0.108544 1.4263 -2.34898e-19)
(0.0900199 1.45327 -1.90611e-19)
(0.0846429 1.4643 0)
(0.102824 1.39983 0)
(-0.0315932 1.05128 -3.33608e-19)
(0.0784501 1.31099 1.00988e-19)
(0.120703 1.34172 0)
(0.0362363 1.04231 -2.1934e-19)
(0.0147251 0.916603 4.64369e-19)
(1.04028 0.0107317 0)
(1.0456 0.00710056 -4.49441e-20)
(1.03849 0.02053 -3.25586e-19)
(1.04752 0.0185263 0)
(1.05219 0.0181212 0)
(1.03564 0.0105029 -6.41841e-21)
(1.03139 0.0104436 5.25904e-19)
(1.03135 0.0152906 6.39375e-19)
(1.02614 0.0190454 0)
(1.02359 0.0198557 0)
(1.03475 0.0231715 3.2563e-19)
(1.02586 0.0247415 0)
(1.02548 0.0240699 0)
(-0.0212731 2.22047 0)
(-0.0985243 2.0452 6.85641e-21)
(-0.0896711 2.14774 -1.55515e-19)
(0.0593423 1.31061 0)
(0.0433245 1.75498 -2.01972e-19)
(0.0343727 1.49385 1.72122e-19)
(0.0226238 1.27764 0)
(0.394663 1.69204 0)
(0.361357 1.28009 3.13877e-19)
(0.304895 1.33634 0)
(0.416595 1.27932 -4.43841e-19)
(0.460489 1.44489 0)
(0.441744 1.3886 2.17887e-19)
(1.03225 2.69708 -9.75796e-21)
(0.958553 2.41672 -5.97584e-19)
(0.904947 2.18556 6.87126e-19)
(0.84325 2.38012 1.78523e-19)
(0.845085 2.51126 0)
(0.915251 2.50516 0)
(0.918851 2.37882 0)
(0.896489 2.36304 -6.8843e-19)
(0.692873 2.48417 -1.90998e-19)
(0.801715 2.47594 -5.24533e-20)
(0.81335 2.44684 4.01473e-20)
(0.691275 2.3926 0)
(0.795202 2.39062 0)
(0.754311 2.40161 -2.93607e-19)
(0.769694 2.50167 0)
(0.613248 1.08713 0)
(0.489731 0.933266 -2.49764e-19)
(0.557411 0.965095 -1.64375e-20)
(0.529476 1.0653 0)
(0.528985 1.01466 3.76088e-19)
(0.765821 0.874922 -5.75744e-20)
(0.776121 1.00916 0)
(0.749444 0.963834 6.13668e-20)
(0.641713 1.02887 0)
(0.644518 0.941335 0)
(1.16622 2.76447 -8.38094e-20)
(1.14454 2.82798 1.56602e-20)
(0.936346 2.35082 -9.60965e-20)
(0.903208 2.32989 -2.21439e-20)
(1.13078 2.73917 0)
(1.0832 2.71005 2.67977e-20)
(1.09013 2.49226 -1.95793e-19)
(0.985569 2.23674 -3.08117e-20)
(0.504736 1.37044 0)
(0.518739 1.08275 -1.74996e-20)
(0.554708 1.15396 0)
(0.860107 0.214076 0)
(0.80951 0.170131 0)
(0.768078 0.149343 0)
(0.854048 0.222751 -4.84879e-19)
(0.78617 0.21362 2.90701e-19)
(0.935408 0.057499 -2.91326e-19)
(0.950479 0.103503 0)
(0.926085 0.10868 1.27358e-19)
(0.874844 0.0862321 5.13825e-19)
(0.857222 0.0475083 -3.19488e-19)
(1.16375 3.36273 -8.55493e-19)
(1.21146 3.28191 0)
(1.16215 3.39089 -1.71984e-18)
(0.648861 3.55171 1.46923e-18)
(0.873939 3.1189 2.28872e-19)
(0.516493 0.857659 4.12811e-19)
(0.436797 0.854081 0)
(0.340533 0.504571 -1.16619e-19)
(0.441989 0.688418 6.18521e-19)
(0.528518 0.477004 -1.58614e-19)
(0.504178 0.526522 1.81794e-19)
(0.649685 0.543308 3.90543e-19)
(0.678679 0.562805 0)
(0.630792 0.625111 0)
(0.588763 0.563578 0)
(0.95362 0.594355 2.27289e-20)
(0.87787 0.534022 -3.62649e-19)
(0.900949 0.565938 2.4733e-19)
(0.936376 0.501806 -2.76948e-19)
(1.04022 0.475233 0)
(1.04868 0.564676 -5.43116e-20)
(0.836389 0.387496 -6.35502e-19)
(0.840707 0.372566 -7.6482e-19)
(0.790222 0.383982 4.96552e-19)
(0.783276 0.355842 -5.2755e-19)
(0.836753 0.311945 -4.0248e-19)
(0.792182 0.309592 4.95025e-19)
(1.02651 0.00558095 -3.3448e-19)
(1.02627 0.00574773 6.8078e-19)
(1.02941 -0.00044982 4.22535e-19)
(1.0331 0.000325918 -5.08374e-19)
(1.03308 0.00767495 0)
(1.02991 0.00853521 -8.22611e-19)
(0.0511125 1.64619 -1.92276e-20)
(0.0342715 1.57411 0)
(0.0840981 1.69519 -2.02534e-19)
(0.0784713 1.67733 1.90649e-19)
(0.0910543 1.5285 -1.43439e-19)
(0.0897719 1.50494 0)
(0.130969 1.81745 0)
(0.0918543 1.61023 8.5207e-20)
(0.114939 1.45929 -7.59163e-20)
(0.0823111 1.66388 1.89148e-20)
(0.0254051 2.09903 1.51717e-19)
(0.0288418 2.08194 -5.14745e-20)
(0.498093 1.37996 9.07376e-20)
(0.490874 1.38545 -9.45719e-20)
(0.438063 1.27766 2.06559e-19)
(0.433813 1.29452 -9.79793e-21)
(0.623002 1.28753 0)
(0.537515 1.37457 3.24059e-19)
(0.554601 1.38362 -3.15513e-19)
(0.444437 1.2665 -1.99257e-19)
(0.500342 1.22048 0)
(0.556552 1.19088 0)
(0.659394 2.44347 2.80637e-19)
(0.669505 2.47475 8.74065e-19)
(0.717435 2.49026 -6.0146e-19)
(0.620754 2.47186 -1.60676e-19)
(0.563227 2.56248 1.85028e-19)
(0.512745 2.53465 -5.07908e-19)
(0.972786 2.38142 -3.79854e-19)
(1.0121 2.3976 0)
(0.918337 2.16563 -4.55687e-19)
(1.05224 2.69047 0)
(1.05445 2.67753 0)
(0.614486 2.27818 5.92153e-20)
(1.04439 3.16527 3.10205e-19)
(0.915443 3.03549 -2.34991e-19)
(0.284306 0.923695 0)
(0.32318 0.784594 -2.34859e-19)
(0.481393 0.739372 -1.94904e-19)
(0.390269 2.02666 0)
(0.469024 2.78772 -1.59345e-19)
(0.424643 2.55203 0)
(0.678058 0.688627 -5.73847e-19)
(0.756362 0.679424 7.70683e-19)
(0.774882 0.624629 -7.60389e-19)
(0.657012 0.652408 -7.75922e-20)
(0.712157 0.600826 -3.20909e-19)
(1.00692 2.76912 -2.35873e-19)
(1.04336 2.82448 6.6545e-20)
(0.640996 2.15403 3.73253e-19)
(0.600178 1.72195 -2.81865e-19)
(0.703809 1.91267 -1.43491e-19)
(0.993144 2.45244 -9.11383e-20)
(0.997235 2.4448 6.2484e-20)
(0.663467 1.8513 1.12946e-20)
(0.457783 1.34299 3.11096e-20)
)
;

boundaryField
{
    wall-4
    {
        type            noSlip;
    }
    velocity-inlet-5
    {
        type            fixedValue;
        value           uniform (1 0 0);
    }
    velocity-inlet-6
    {
        type            fixedValue;
        value           uniform (0 3 0);
    }
    pressure-outlet-7
    {
        type            zeroGradient;
    }
    wall-8
    {
        type            noSlip;
    }
    frontAndBackPlanes
    {
        type            empty;
    }
}


// ************************************************************************* //
