/*--------------------------------*- C++ -*----------------------------------*\
| =========                 |                                                 |
| \\      /  F ield         | OpenFOAM: The Open Source CFD Toolbox           |
|  \\    /   O peration     | Version:  4.0                                   |
|   \\  /    A nd           | Web:      www.OpenFOAM.org                      |
|    \\/     M anipulation  |                                                 |
\*---------------------------------------------------------------------------*/
FoamFile
{
    version     2.0;
    format      ascii;
    class       volScalarField;
    location    "6";
    object      p;
}
// * * * * * * * * * * * * * * * * * * * * * * * * * * * * * * * * * * * * * //

dimensions      [0 2 -2 0 0 0 0];

internalField   nonuniform List<scalar> 
918
(
0.252461
1.08124
0.00611334
0.251762
0.000834252
1.04884
-0.655827
0.449393
0.234221
-0.0992814
0.0270593
0.224138
0.909361
0.674661
-1.35879
0.0249509
0.384956
-0.702537
0.220407
0.0158537
0.615233
0.242402
0.242386
0.228649
0.283593
0.662374
0.790787
0.00142249
0.000403696
0.00246736
0.000712595
0.000456607
0.00602851
0.932258
0.982787
1.00536
0.207463
-0.296054
-0.429331
-0.586141
-0.51119
-0.761605
0.430128
0.431443
-0.432396
0.453869
0.482416
0.221426
0.232535
0.233899
0.236225
0.235292
0.236288
0.284763
-0.117921
-0.181397
-0.0536094
-0.035533
0.08868
0.0262709
0.0338166
0.0290058
0.0329846
0.163076
0.220149
0.21631
0.227128
0.23134
1.0198
0.991218
1.01652
0.933112
0.948154
0.886709
0.858289
0.696436
0.7177
0.660235
0.64956
-1.8179
-2.83287
-0.749593
-0.471674
0.00190922
0.0321035
0.0315969
0.368925
0.382555
0.381702
0.400831
0.704636
-0.625539
-0.868645
0.228076
0.224589
0.240117
0.238002
0.235998
0.231782
0.0203802
0.0233772
0.00233071
0.0109854
0.00934368
0.598401
0.577649
0.228266
0.2266
0.242234
0.2537
0.249364
0.010874
0.294116
0.321058
0.476163
0.648737
0.641732
0.649241
0.765116
0.72937
0.827759
0.850594
0.00617877
0.000127383
0.0176269
0.00849855
0.016389
0.199746
0.196069
0.215199
0.210307
0.209486
-0.266895
-0.290102
-0.302398
-0.235044
-0.40529
-0.536641
-0.651166
-0.615456
-0.848184
0.726947
0.407553
0.420622
-0.376251
-0.338993
-0.480615
-0.290183
-0.382879
0.214075
0.218834
0.215653
0.227431
0.219763
0.22744
0.237867
0.234562
0.235737
0.308325
0.357798
0.250186
0.226462
-0.391841
-0.20713
-0.393177
-0.0181747
-0.00483164
0.100587
0.117583
0.0839185
0.0785745
0.0149985
0.0298024
0.0214336
0.0339621
0.0315385
0.155888
0.14796
0.173068
0.183622
0.210112
0.21451
0.212187
0.214625
0.807678
0.831663
0.839763
0.813075
-3.8977
-6.98956
-0.119905
0.0343337
0.00117912
0.000422417
0.00196606
0.000809668
0.00550471
0.00208674
0.0507574
0.0438562
0.036521
0.0417974
0.352968
0.362154
0.669366
0.737089
0.613083
0.60749
0.216484
0.219616
0.225145
0.222265
0.0324837
0.0257215
0.028941
0.486512
0.539125
0.521261
-0.0272566
-0.117348
0.0586375
0.0815529
0.342476
0.329837
0.346189
0.537467
0.574399
0.85691
0.874889
0.874265
0.88228
0.928546
0.941898
0.907552
0.186137
0.192598
0.187961
0.218739
0.213993
0.218781
0.209852
0.213289
0.213308
-0.382592
-0.641639
0.325207
0.131309
-0.173153
0.0232962
0.72267
0.78728
0.388309
0.400271
0.405437
-0.22307
-0.316407
0.198168
0.17541
0.103971
0.135756
0.117675
0.777678
0.742285
0.791338
0.765031
0.72603
0.749342
-0.634365
-1.86778
-1.09723
0.41844
0.223617
0.312701
0.0660621
0.0556781
0.0565453
0.720713
0.783971
0.392631
0.514265
0.509166
0.611423
0.64412
0.704049
0.624826
0.660699
0.69943
0.67945
0.603475
0.407434
0.579332
0.769198
0.81171
-0.128696
-0.167317
-0.252914
0.12853
0.157892
0.140003
0.757331
0.777658
0.804443
0.225472
0.229036
0.0108783
0.0154718
0.238006
0.239292
0.00551955
0.00873136
0.326394
-1.13176
-0.130419
0.223401
0.217837
0.228986
-0.0697492
0.271948
0.0346942
0.0958776
0.0646762
0.21972
0.173313
0.144686
0.000641015
0.02264
0.0209137
-0.301599
0.226725
0.220145
0.229694
0.231778
0.234117
0.00864978
0.0120631
0.00869915
0.0197562
0.0148272
0.0151239
0.202056
0.211193
-0.240759
0.228809
0.232688
0.23358
0.223354
0.231551
0.225764
0.0202158
0.0142652
0.0173689
-0.0306536
0.0800528
0.57349
0.652135
0.573673
0.308517
0.0216301
0.453625
0.526719
0.43523
0.57882
0.38445
0.430883
-0.074661
-0.203283
-0.0774173
-0.129914
0.222209
0.218734
0.213822
0.214224
0.230009
0.22505
0.227459
0.226887
0.22808
0.227655
-0.0227143
-0.0321189
-0.0843887
-0.169223
0.291715
0.355234
0.224124
0.23668
0.147682
0.0444151
0.037737
0.0343515
0.0271491
0.0674746
0.0697078
0.081081
0.0832498
0.0555883
0.0560016
0.0654611
0.0658021
0.0707847
0.215902
0.212527
0.219814
0.226562
0.178929
0.183755
0.156761
0.173539
0.158192
0.109638
0.142244
0.119212
0.00790789
0.00694129
0.00875485
0.0231727
0.0349335
0.0216862
0.0135215
0.0194639
0.0153884
0.0120178
0.0259972
0.0281924
-0.235856
-0.384964
0.660009
0.548335
0.316971
0.221131
0.224285
0.21822
0.221432
0.227528
0.233743
0.232678
0.225096
0.212507
0.213541
0.21107
0.211178
-0.108096
-0.306933
-0.196432
-0.282289
-0.399058
0.326
0.0885332
0.0247103
0.0238308
0.22063
0.923493
0.698029
0.598641
0.590665
-0.627771
-0.150497
-0.519042
0.146744
-0.0777619
0.546054
0.597788
0.623572
0.565689
0.520507
-0.520938
0.068836
-0.251955
-0.209781
-0.0829883
-0.154911
0.542706
0.370221
0.380522
0.4252
0.468582
0.37874
0.354637
0.353935
0.405168
0.407114
0.163285
-0.0019488
-0.053972
-0.0854897
0.360677
0.218325
0.272041
0.203469
0.215854
0.217927
0.218702
0.204825
0.210341
0.209107
0.210797
0.212987
0.219972
0.21979
0.21996
0.222516
-0.00908591
-0.0072017
-0.0292543
-0.174312
-0.173354
-0.243714
-0.0992042
0.140843
0.111278
0.28871
0.380926
0.0753947
-0.0778029
-0.0509255
0.0346953
0.161369
0.157574
0.115154
0.161163
0.168448
0.142075
0.207039
0.196071
0.0491376
0.0596275
0.0449723
0.0390456
0.103934
0.122557
0.11747
0.0543363
0.056175
0.039233
0.037557
0.0845479
0.0581128
0.0677875
0.0725137
0.0233629
0.0258491
0.0338464
0.0457387
0.0425825
0.0466948
0.211364
0.210444
0.213491
0.223666
0.230141
0.24534
0.221779
0.197877
0.188412
0.193217
0.173639
0.187758
0.177054
0.188739
0.198991
0.208259
0.208957
0.209274
0.196969
0.198109
0.194167
0.195715
0.172136
0.15391
0.143913
0.0172929
0.0168838
0.020401
0.0166556
0.0133986
0.0144535
0.0500461
0.0383271
0.0430429
0.0414467
0.0470221
0.0189036
0.0222402
-0.0795659
0.0450923
-0.246849
-0.274622
-0.369267
0.647426
0.707469
0.551682
0.466661
0.491034
0.589319
0.619152
0.389083
0.468198
0.465803
0.653345
0.725051
0.214899
0.221181
0.220357
0.215197
0.215511
0.00241046
-0.0325647
-0.048879
-0.122297
-0.228125
-0.314564
0.432357
0.528261
0.536338
0.261801
0.319852
0.336837
0.275444
0.30539
0.309518
0.140953
0.214206
0.258435
0.223522
0.256843
0.273826
0.248326
0.26826
0.228498
0.194085
0.194791
0.141615
0.145013
0.127175
0.118654
0.212137
0.193093
0.198376
0.192953
0.215642
0.242728
0.23207
0.247761
0.264484
0.199847
0.166656
0.171704
0.193913
0.16537
0.176011
0.187569
-0.399731
-0.401943
-0.309835
-0.685302
-0.571449
-0.4614
-0.564231
-0.588258
-0.34725
-1.07178
-0.898092
-1.4132
-0.102158
0.947064
0.547152
0.513794
0.471923
0.428545
0.432706
0.525009
0.510037
0.347474
0.36425
0.37134
0.300282
0.337042
0.394893
0.382001
0.0754678
0.0387694
-0.0303598
0.0248571
-0.069023
-0.0552551
0.126502
0.0669208
-0.000239475
0.00448381
0.185448
0.0811416
0.134565
0.173879
0.0992697
0.0786121
0.239951
0.314426
0.298074
0.266636
0.190851
0.199362
0.235264
0.273714
0.294728
0.332898
0.211493
0.215843
0.21702
0.21332
0.212483
0.214308
0.214857
0.215343
0.216929
0.216889
0.216878
0.027787
0.0386741
0.0131302
0.0210187
0.0354007
0.0222623
0.0647213
0.0445507
0.050847
0.0515291
0.02633
0.0101756
0.0220184
0.0376107
0.157675
0.186477
0.186998
0.141913
0.247074
0.346472
0.388656
0.344892
0.214673
0.240894
0.281665
0.092692
0.0980673
0.083987
0.110637
0.102186
0.0425683
0.0403866
0.0408937
0.0504375
0.0476678
0.035169
0.0299846
0.0296906
0.0330278
0.0362317
0.0343526
0.198833
0.192175
0.191891
0.185925
0.186196
0.200834
0.204386
0.203908
0.205955
0.207996
0.203586
0.207251
0.208047
0.0373419
0.0235307
0.0284173
0.0301961
0.0256353
0.0218567
0.0262727
0.263991
0.163158
0.226522
0.112536
-0.138662
-0.0416749
0.372687
0.564206
0.509242
0.672265
0.610169
0.553046
0.580923
0.685326
0.433905
0.577983
0.533482
0.68165
0.673695
0.725338
0.584982
-0.21618
-0.589181
-0.216835
-0.531403
-0.679711
-0.0924182
-0.0834629
-0.0816028
-0.159444
-0.205637
0.0339952
0.0377288
-0.0147566
0.241845
0.091684
0.192833
-0.14714
-0.0980536
0.234405
-0.0601181
0.112609
0.313666
0.334513
0.349564
0.319769
0.347569
0.272702
0.266874
0.277466
0.293948
0.284043
-1.18016
-1.12194
-1.74508
-1.06252
-0.745323
-0.132877
-0.443189
0.390938
0.252889
0.460754
0.399315
0.349622
0.290322
0.269292
0.336639
0.0614405
0.161447
0.140144
0.14375
0.059527
-0.00401971
0.285195
0.277872
0.315796
0.337341
0.310555
0.341174
0.210151
0.20746
0.21284
0.207301
0.199452
0.199845
0.113725
0.0842156
0.128391
0.111191
0.0630422
0.057007
0.0424023
0.0395459
0.0337642
0.0330606
0.0421292
0.0436518
0.318124
0.280165
0.129182
0.232737
-0.0446947
-0.0942898
-0.149677
0.0587291
0.0767306
0.0747905
0.484098
0.591385
0.534589
0.551264
0.451236
0.473
0.367246
0.102075
0.211942
0.258417
0.362745
-0.722898
-0.94423
-0.786884
0.588861
0.479028
0.0214324
-0.295599
-0.321834
0.077642
0.161174
0.109653
0.165315
0.230978
0.233122
-0.74886
-0.576953
-0.87844
-0.756163
-0.623162
-0.491554
-0.480706
-0.763519
-0.775201
)
;

boundaryField
{
    wall-4
    {
        type            zeroGradient;
    }
    velocity-inlet-5
    {
        type            zeroGradient;
    }
    velocity-inlet-6
    {
        type            zeroGradient;
    }
    pressure-outlet-7
    {
        type            fixedValue;
        value           uniform 0;
    }
    wall-8
    {
        type            zeroGradient;
    }
    frontAndBackPlanes
    {
        type            empty;
    }
}


// ************************************************************************* //
