/*--------------------------------*- C++ -*----------------------------------*\
| =========                 |                                                 |
| \\      /  F ield         | OpenFOAM: The Open Source CFD Toolbox           |
|  \\    /   O peration     | Version:  4.0                                   |
|   \\  /    A nd           | Web:      www.OpenFOAM.org                      |
|    \\/     M anipulation  |                                                 |
\*---------------------------------------------------------------------------*/
FoamFile
{
    version     2.0;
    format      ascii;
    class       surfaceScalarField;
    location    "6";
    object      phi;
}
// * * * * * * * * * * * * * * * * * * * * * * * * * * * * * * * * * * * * * //

dimensions      [0 3 -1 0 0 0 0];

internalField   nonuniform List<scalar> 
1300
(
3.75095
5.62643
-6.41643
3.75095
-6.29128
5.62643
-5.19921
5.19921
-1.61021
1.61021
1.87888
1.87207
-5.38696
5.38696
-5.41439
5.41439
-2.97459
2.97459
-5.24665
5.24665
-5.07001
5.07001
4.75465
-4.75465
-5.17205
5.17205
-2.11035
2.11035
-6.0147
6.0147
3.13508
-3.13508
-5.4255
5.4255
-0.569092
0.569092
-0.552321
4.30327
3.19863
3.19863
-2.78844
2.78844
-4.85749
4.85749
6.21796
-6.21796
9.70789
-9.70789
-3.29147
-3.32169
1.33901
-8.0556
-4.95227
-4.95227
-8.44005
8.44005
-2.81362
2.81281
3.11814
-3.11814
-1.02485
1.02485
-4.82107
-0.378146
-4.82107
5.65997
-0.460761
5.65997
-1.78368
0.17347
-1.78368
4.17521
-4.17521
1.4588
0.151406
1.4588
3.06002
-3.06002
-1.87838
3.75726
1.87258
-1.86975
6.17302
-1.88121
3.75328
-4.85386
4.85386
-5.53835
0.151391
-5.53835
5.36181
0.0251539
5.36181
-5.35801
5.35801
-5.39418
-0.020213
-5.39418
5.41402
0.000374361
5.41402
3.1735
-3.1735
-3.02965
0.0550658
-3.02965
2.92202
0.0525633
2.92202
0.353488
5.27294
-5.97992
8.79273
-5.27294
0.0262913
5.20817
0.0384781
5.20817
-5.10609
0.0360814
-5.10609
5.01004
0.0599751
5.01004
4.86004
-0.105395
4.86004
-4.85384
0.0991912
-4.85384
-3.26763
-3.34541
-5.24826
0.0762162
-5.24826
-2.10948
-0.000870529
-2.10948
2.09728
0.0130682
2.09728
-3.86254
3.86254
-6.17694
0.162245
-6.17694
3.066
0.069073
3.066
1.87216
1.8788
5.62311
-5.62311
2.48803
-5.41653
-0.00897538
-5.41653
-5.46162
-4.24628
5.46162
-0.0361137
-0.976017
0.406925
-0.976017
3.11941
0.0792196
3.11941
2.89842
0.0236041
-2.89842
0.109984
3.57602
-3.57602
2.10588
0.68256
2.10588
-5.57758
5.57758
4.94693
0.0631083
-4.94693
0.0894408
6.15689
0.0610682
6.15689
-6.2008
-0.017165
-6.2008
3.33463
-6.65632
-3.29316
5.08355
0.0884991
-5.08355
0.131279
3.12757
-0.00943491
3.12757
-3.07637
3.07637
-3.10003
-0.0181056
-3.10003
-1.58904
0.564193
-1.58904
0.797284
0.227561
0.797284
-4.58305
-0.238021
-4.58305
-5.989
-0.187943
5.989
-0.329024
2.29259
-2.29259
-1.92496
0.141285
-1.92496
-4.33759
-0.245456
4.33759
-0.162376
-4.08217
-0.0930401
-4.08217
-3.0839
-0.0161273
3.0839
-0.0238784
3.06804
0.0513704
-3.06804
0.00801883
-1.87265
3.75144
-1.87831
3.75088
-4.58882
-0.265044
-4.58882
5.08555
-0.231685
5.08555
5.80725
0.207444
-5.80725
0.268899
5.38123
-0.0194246
5.38123
-5.31626
-0.0417453
-5.31626
5.37043
-0.0124148
5.37043
5.37505
0.00618367
-5.37505
-0.0191276
5.40366
0.0103609
5.40366
3.20483
-0.0313385
3.20483
-3.15467
-0.0188263
-3.15467
3.05196
-3.05196
3.0491
0.00286951
-3.0491
0.0194421
-11.1329
11.1157
-0.0361156
-11.0968
5.17206
5.17206
4.15885
0.701193
4.15885
-5.03811
0.184275
-5.03811
3.27831
-6.57147
3.30704
-6.57468
3.34773
-11.4033
3.30197
-6.64738
5.34099
-5.34099
5.32238
0.0186036
-5.32238
0.074122
-2.13227
0.0227904
-2.13227
-3.63089
-0.231648
-3.63089
4.1102
-0.247665
4.1102
-3.04641
3.04641
-3.0403
-0.00611097
3.0403
0.0257048
5.41612
-0.012463
-5.41612
-0.000410593
1.25163
0.207168
-1.25163
0.275618
3.73904
-0.163026
3.73904
-3.38879
-0.187227
-3.38879
-2.08859
-0.0436798
2.08859
0.0172852
-5.82036
0.242777
-5.82036
-11.1901
0.0933826
-11.1517
-6.10741
-6.10741
2.33263
11.1254
-3.14548
-0.00918863
3.14548
-0.017911
3.06795
-0.0215421
-3.06795
-0.00842116
-3.06523
0.013262
3.06523
0.0111454
-2.24822
0.659187
-2.24822
-1.35323
1.35323
-0.934649
-0.418584
0.934649
-0.137365
2.72453
-0.431938
2.72453
2.01975
0.0775316
-2.01975
0.0947873
-3.95066
-0.131513
-3.95066
5.18746
-0.10191
5.18746
-3.28677
-0.102019
3.28677
-0.0819386
-0.0330866
11.1488
-5.13897
0.0328774
5.13897
-11.2099
11.2427
-3.09777
0.849544
3.09777
1.06108
5.30001
0.27757
-5.30001
0.261902
5.35247
0.0179595
-5.35247
0.0114775
-3.40263
-0.228259
-3.40263
-4.32456
-0.264252
4.32456
-0.21436
-11.4753
-0.2
11.6753
-11.4153
6.02036
0.136533
-6.02036
11.3793
-1.87191
-0.420681
1.87191
-0.51868
3.04522
-0.320685
3.04522
3.8841
-0.145056
-3.8841
-0.066561
-5.22789
-0.0883752
5.22789
-0.0404335
-3.25571
-0.146922
3.25571
-0.210494
-4.22868
4.3079
1.94434
-3.33979
-3.31653
-7.58607
1.82066
1.93078
4.30869
-7.04994
-4.35339
-6.91866
7.24455
-6.98264
-9.52916
9.42376
7.29194
-7.38498
-5.78792
5.81363
6.37271
-6.39658
1.86948
1.88777
10.6245
-10.4731
-10.2742
10.0091
10.2211
-10.2413
10.6323
-10.674
-12.2151
12.233
-5.68182
5.73688
-6.61014
6.59132
-6.72723
6.64529
-3.27103
-3.30365
8.99611
-8.9199
11.6787
-11.6877
-11.1151
11.2773
3.31541
0.992491
3.36678
-1.89653
3.76602
-1.85675
3.80109
3.25878
-6.52981
3.31269
-6.62923
6.02234
5.65637
-5.98622
-1.59984
-5.8453
5.83587
-5.79855
5.80969
8.68288
-9.06103
-1.88399
3.77176
-1.86689
3.79768
-3.41971
-2.36821
3.35064
0.958055
5.56012
3.43599
-5.64862
-1.27004
-7.52428
7.37923
-7.83295
7.64573
-0.422297
5.78787
-5.36558
4.43519
-1.48064
7.26851
5.76391
5.94818
5.86438
-5.58681
1.11827
-6.48384
-6.3944
-2.6669
2.80819
2.67161
-2.5202
5.61175
1.68019
5.44937
-5.38388
-2.0011
-5.5154
3.84804
1.96558
3.84193
4.06011
2.31259
4.04399
3.05266
-3.04043
-0.0122228
-3.11885
6.17151
0.73133
-5.48706
-4.52901
6.90017
3.72434
6.92532
-7.26676
-3.20636
-6.99786
-6.10169
-4.1725
-6.36594
6.5976
3.41155
6.36592
-7.8025
7.76207
6.76862
3.45251
6.769
-6.82649
-3.41486
-6.84562
10.3066
-2.68027
-7.62638
-6.85758
-5.35748
6.86999
3.76228
7.44172
4.7913
7.4532
3.51652
6.79013
-7.2788
1.92131
-3.81708
-1.86474
-3.79764
3.69049
2.04639
3.74306
-4.15983
-2.45031
-4.16902
-4.20491
-2.52232
4.23625
2.35506
-4.25967
-3.57328
4.36169
2.2836
3.06383
-7.41722
3.58355
-6.8872
-6.26268
-2.65721
-6.18856
3.9504
2.73093
-6.68133
-2.5794
10.8085
-5.15211
9.20863
-7.28589
-4.40179
-7.2863
-8.35171
-2.76337
-8.53965
-5.65334
5.42508
-5.728
5.48033
10.4542
-5.54077
-4.91342
-3.85067
-2.54592
3.84265
-0.475872
-3.81606
3.80384
-0.0500473
3.75104
4.74354
4.26766
-3.84761
-1.95094
-3.85603
3.82374
1.98595
3.837
7.68851
0.99437
7.22775
-6.12648
-2.93455
-6.3645
8.3252
-7.76101
2.94574
-2.98942
5.07375
2.57197
-4.91073
-2.61356
5.90981
-2.86452
-3.04529
-12.0615
10.6573
1.40422
-4.79304
-0.357845
0.211247
-5.58898
-3.94018
5.48979
0.458393
11.1157
7.17554
-5.51302
5.7558
6.1623
6.22541
-0.16899
5.76305
-4.9135
4.96803
-2.58372
-2.38431
4.92434
-5.1698
-1.44016
-4.94935
3.50919
0.279572
1.96425
-1.55732
-2.14681
-0.520095
-2.05202
1.59934
1.07226
1.80651
1.00676
1.80142
-2.8872
0.545307
2.3419
-1.88044
-1.97489
-3.39846
-1.27644
4.6749
5.39936
1.97986
-5.3328
-0.182593
2.82003
-2.80696
-0.662394
-2.73607
2.04636
-2.70875
-3.35318
-1.84352
5.1967
-3.33221
-0.523821
3.35375
0.488182
-3.76342
-2.08188
3.78152
0.262461
-3.05261
6.10803
-3.05542
-5.00355
2.59275
3.57876
4.55833
-4.82748
2.4596
2.36788
-1.24872
6.00095
0.924378
5.98152
-9.19115
5.98479
7.65372
3.6236
-7.86117
0.863309
-8.32784
9.5786
-8.3549
-1.2237
4.92412
4.65448
5.11019
5.344
-3.82283
8.93302
-1.05613
-7.29877
9.38397
-5.76037
5.5934
-11.3538
-10.9374
3.63863
-6.88646
8.49713
-1.61066
-2.35352
-5.44898
9.23999
-0.815031
-8.42496
5.55089
-5.27377
-5.30713
10.5809
-7.95404
8.72199
-2.58652
-6.13547
-6.62292
-4.05109
6.7113
1.05077
-9.8079
11.7292
-3.01777
5.87332
0.895679
5.88368
3.84467
-5.97424
2.12957
4.10937
-6.69588
2.53868
-8.51292
-4.75814
9.40754
-4.6494
-7.41535
-6.58911
-0.826237
2.02983
9.69939
-6.82113
5.30588
1.51526
3.32707
0.509931
-3.32994
-0.467697
0.33145
4.38868
-4.72013
4.07451
4.09811
3.29476
1.09392
3.82108
2.01479
-3.80317
-0.365851
-3.9719
1.44959
-1.61684
-3.39634
4.84593
-3.83043
0.434089
-2.61133
-3.47275
6.08407
-4.47606
3.04808
3.05995
5.03403
-4.73826
1.26551
-2.33826
-2.4
2.56492
-4.18176
1.84605
2.99987
4.12966
0.556376
4.69524
4.7123
-7.42617
0.538962
8.1483
-6.87825
1.60873
5.84447
-6.9146
0.325489
-5.86307
1.17535
-6.32746
-5.50598
5.97613
-8.7395
-5.37764
7.53487
-0.307119
-7.20585
-1.33381
-3.93168
-1.72166
-4.0786
-1.74119
-3.98681
-5.56402
-1.20662
-4.35739
4.21846
-4.29921
-2.06674
4.51357
0.966762
-4.87089
4.4502
-4.83715
4.51647
0.108787
3.69505
4.37645
1.83053
-2.44633
4.27687
-6.04053
7.03489
-7.19792
1.1574
2.6971
-5.63165
-4.50082
4.24547
4.07974
4.47303
7.06834
-11.5427
4.47437
-8.23782
8.49637
-0.258551
-12.4148
4.17696
-5.34645
2.7299
0.215833
2.75269
0.693272
2.34877
-3.04204
-2.29614
-2.27886
-2.1923
-3.19603
5.38832
1.04041
-3.18161
2.1412
-3.26628
4.30669
-0.105771
-3.07584
5.20213
-2.85336
5.41796
-3.37205
2.04591
3.05645
5.26814
-2.21169
4.15489
-1.58291
1.6547
-3.86639
-1.54133
-2.94696
4.99335
-3.13711
3.5712
-0.273216
3.84442
-3.88874
1.02422
-0.593977
3.50413
3.61412
4.10787
-3.01395
2.8038
-4.38672
-1.06258
-3.83034
-0.830466
-4.64748
-3.15389
7.80138
4.78197
-9.42945
-6.25995
9.49993
-3.23998
7.59873
-5.92863
-1.6701
-4.01875
-3.74226
3.35957
2.40348
10.0022
-0.129747
-5.79888
-5.04325
-3.98217
2.31884
2.64919
-2.09333
3.49755
1.88208
0.082166
0.626425
1.18009
1.92648
-1.30005
0.101618
1.82486
-1.45571
2.07378
0.74625
-2.15131
0.0992884
-1.328
3.37436
1.0139
-2.08617
0.786111
0.789201
-3.37292
4.65557
-2.35732
-2.29825
5.44477
1.03267
-3.38999
3.91668
-3.63711
1.94774
-3.22418
-1.44225
-5.07936
-3.39917
-2.3481
4.4893
-3.04022
5.02009
1.13612
-4.83749
5.97361
-3.35135
1.50784
-2.94611
3.69236
-0.955334
-1.99078
2.58113
2.61556
-2.77133
0.0352655
-0.190199
2.13297
-2.32317
-0.575781
-2.45622
-4.54069
4.80315
-2.04877
4.50837
2.2281
-1.88702
6.39539
1.81631
-3.70333
-3.18724
-3.71106
-1.33545
3.22288
-0.933238
-5.91238
-7.06871
5.90619
0.075328
-9.07572
10.2262
-1.15048
-5.35139
-0.633399
5.55751
-7.43125
0.735366
-4.89257
5.33364
6.25801
6.33334
-8.31105
-0.11391
-4.8995
1.17598
-6.07548
5.83046
-2.89256
6.5312
-7.00722
4.94048
-6.04046
5.3075
-0.767981
5.53498
-3.40541
2.0914
-6.14249
-5.09172
6.96951
-3.517
7.86519
-4.04612
11.9113
-7.06389
6.91017
5.00114
-1.36556
-5.92075
-6.86064
5.49508
0.0495301
5.93321
4.82744
-2.81265
4.46159
2.17049
-4.50875
-2.01127
-6.30854
1.79979
-3.24859
-1.8486
3.64839
3.18543
3.69536
1.2484
-3.22767
6.51109
-7.33733
-1.86169
-3.64429
6.75103
-1.25595
3.97822
-7.6225
-2.34924
5.53894
-1.08935
-4.44959
0.00182577
-5.37947
3.00438
-8.38384
5.73512
-7.06893
1.69747
-7.04392
-3.17341
-3.69209
-1.67763
-3.15953
-5.0357
3.35808
-0.85874
3.59146
-6.0956
5.00625
-2.40077
5.75885
-3.51722
-0.561375
3.72772
0.788753
6.5476
-1.1023
-3.39853
-2.24262
3.69668
-1.45405
0.0762168
-4.25619
-0.559512
2.27181
3.17296
-5.781
0.14935
-3.24918
-2.68587
6.7656
6.81406
11.596
0.0533257
7.89654
-1.13094
7.94987
3.34209
3.20473
-2.46036
6.93473
5.34101
6.49841
-0.839008
2.88492
1.91369
1.91282
0.894145
2.21849
1.39563
3.24271
0.200672
-2.07819
5.06624
-9.04841
-0.732643
-8.34722
1.07654
6.21033
-5.13378
3.08854
-0.43935
1.63448
-0.537262
-2.14966
2.68692
-2.92157
-2.06749
-0.242628
-1.53767
2.32378
1.83668
-2.08116
-0.840416
0.406215
-3.80538
2.81796
-2.7827
-0.167135
5.80648
-2.58265
0.259477
-1.07481
-2.19674
-2.71684
2.61755
6.11596
0.279431
3.06054
5.08258
3.0007
0.188048
4.41963
-6.0303
-4.09329
-6.14421
-0.313742
5.24377
2.01171
7.68767
7.01286
5.7569
-1.8656
-9.20293
7.22655
-0.291822
6.968
-2.51841
-5.86544
6.12129
0.913608
-5.81417
-1.25476
-7.1202
-7.41202
-0.445563
5.45181
-6.10204
5.54066
3.819
0.538392
-2.85585
-0.836246
3.27443
-0.0697042
7.88016
-1.35516
-7.78688
9.14204
-4.85516
4.12252
0.183213
3.31433
2.87013
2.43078
-5.3561
-10.4899
-1.95066
-1.42226
-4.24891
0.425991
-2.26267
6.65134
-2.52882
4.98124
6.61322
8.24771
-3.87441
-5.55504
7.11439
-2.13315
6.11455
)
;

boundaryField
{
    wall-4
    {
        type            calculated;
        value           uniform 0;
    }
    velocity-inlet-5
    {
        type            calculated;
        value           uniform -3.75095;
    }
    velocity-inlet-6
    {
        type            calculated;
        value           uniform -5.62643;
    }
    pressure-outlet-7
    {
        type            calculated;
        value           nonuniform List<scalar> 8(6.41643 6.29128 6.61316 6.71659 6.61304 6.62779 6.58536 6.6497);
    }
    wall-8
    {
        type            calculated;
        value           uniform 0;
    }
    frontAndBackPlanes
    {
        type            empty;
        value           nonuniform 0();
    }
}


// ************************************************************************* //
