/*--------------------------------*- C++ -*----------------------------------*\
| =========                 |                                                 |
| \\      /  F ield         | OpenFOAM: The Open Source CFD Toolbox           |
|  \\    /   O peration     | Version:  4.0                                   |
|   \\  /    A nd           | Web:      www.OpenFOAM.org                      |
|    \\/     M anipulation  |                                                 |
\*---------------------------------------------------------------------------*/
FoamFile
{
    version     2.0;
    format      ascii;
    class       volVectorField;
    location    "6";
    object      U;
}
// * * * * * * * * * * * * * * * * * * * * * * * * * * * * * * * * * * * * * //

dimensions      [0 1 -1 0 0 0 0];

internalField   nonuniform List<vector> 
918
(
(0.986432 -0.00327649 0)
(0.00482112 2.96625 0)
(-0.00166459 1.70551 0)
(0.972621 0.00620304 0)
(-0.00359669 1.67694 -4.3534e-22)
(-0.00705662 2.94896 -9.70989e-19)
(0.949696 1.36105 2.37393e-19)
(0.539859 0.283561 -3.92653e-21)
(0.99985 -0.00122078 0)
(0.0304933 1.60826 0)
(0.000445024 1.63384 0)
(0.894122 0.00767408 0)
(0.0115324 2.93041 0)
(-0.000500798 2.79677 0)
(-0.021478 3.22003 4.36182e-19)
(0.00495288 1.63736 -1.06713e-20)
(0.678492 0.131502 2.37854e-19)
(0.228559 1.89377 2.2509e-19)
(0.953716 0.0199462 0)
(-0.00107431 1.63982 0)
(0.160532 0.281964 -2.45705e-19)
(0.999526 -0.00519406 0)
(1.00074 -0.00945423 0)
(0.972954 -0.00825092 0)
(0.838469 -0.0103052 0)
(0.00200508 2.63943 0)
(-0.0149424 2.91015 3.33564e-19)
(-0.00586173 1.71947 0)
(0.000404469 1.76421 0)
(0.000960892 1.73058 0)
(0.00179221 1.78975 0)
(-0.00320596 1.68865 3.38003e-22)
(-0.0083561 1.63377 0)
(-0.0205552 2.9875 -3.4591e-23)
(-0.0169615 3.00531 7.71105e-19)
(0.00197598 3.00004 0)
(0.941455 0.00561982 0)
(0.178156 0.446027 -7.62087e-20)
(0.884059 1.40462 -2.48831e-19)
(1.03488 1.12969 2.99152e-19)
(0.774396 1.63265 -5.46446e-20)
(0.849475 1.60967 3.34789e-19)
(0.585716 0.343309 3.82873e-21)
(0.580166 0.267133 0)
(1.20239 0.601028 0)
(0.553407 0.34776 1.83834e-20)
(0.515404 0.289776 -1.90868e-20)
(0.925953 0.00480224 0)
(1.00078 1.31617e-05 0)
(1.00008 0.000530081 0)
(0.996409 -0.00835707 0)
(1.00019 -0.00141299 0)
(1.00117 1.08227e-05 0)
(0.0325942 1.57637 -2.17263e-19)
(0.0294309 1.72311 0)
(0.081069 1.6593 0)
(0.0015047 1.69948 0)
(0.00265461 1.60046 0)
(-0.00232045 1.63919 0)
(-0.00823466 1.69529 0)
(-0.00891855 1.62515 0)
(-0.000991933 1.70556 0)
(0.00618527 1.62819 0)
(0.956461 0.00161723 0)
(0.943207 0.0107388 0)
(0.911727 0.00832151 0)
(0.928603 0.0169264 0)
(0.881195 0.0069586 0)
(0.0152208 3.00079 3.50595e-19)
(0.011519 3.00892 0)
(0.00648718 3.00229 0)
(0.0140544 2.99731 3.9178e-24)
(0.00834529 2.95861 -5.30562e-19)
(0.0154214 2.98183 0)
(0.0116842 2.90363 0)
(0.0258065 2.92969 7.43364e-25)
(0.00400251 2.82542 0)
(0.0332545 2.91559 0)
(-0.00843218 2.74504 0)
(0.318289 3.62743 0)
(-0.147616 3.71264 0)
(0.144853 3.30893 -4.02654e-19)
(0.010039 3.02637 0)
(-0.00743009 1.76235 0)
(0.00145611 1.69955 1.05244e-20)
(0.00122422 1.64288 -1.23917e-20)
(0.714118 0.168635 -8.17177e-20)
(0.682633 0.10008 -8.09349e-20)
(0.711135 0.203929 -2.46977e-19)
(0.663607 0.174991 -1.66108e-19)
(0.210652 1.33318 0)
(0.317548 1.97808 -2.55629e-19)
(0.479336 1.93233 4.25513e-19)
(0.974479 0.0121307 0)
(0.923602 0.0164288 0)
(1.00107 -0.000578269 0)
(1.00385 0.0112753 0)
(0.996192 0.0203192 -4.80615e-19)
(0.985468 0.0259363 3.65412e-19)
(-0.00364485 1.69484 0)
(-0.001047 1.63902 0)
(-9.7592e-05 1.73876 0)
(-0.00624226 1.70835 0)
(4.55472e-05 1.6506 0)
(0.293515 0.355321 7.62321e-20)
(0.347518 0.306842 0)
(0.991343 -0.00998327 0)
(0.94468 -0.00122401 0)
(0.908753 0.00157785 0)
(0.895299 0.0078637 0)
(0.87597 -0.0133287 0)
(1.07122 0.00161689 0)
(0.849716 0.0487509 0)
(0.761498 0.0230623 3.20554e-19)
(-0.0388946 2.87024 2.1884e-19)
(0.0450225 2.90531 0)
(0.0566454 2.87961 0)
(-0.0135925 2.69723 0)
(-0.0134551 2.98572 3.11795e-19)
(-0.0195065 2.89545 0)
(-0.0158351 2.98881 -9.76609e-19)
(-0.0126929 2.92525 3.36473e-19)
(0.00212295 1.77681 0)
(0.00209727 1.76764 0)
(0.00499925 1.70705 -2.08461e-22)
(-0.00575908 1.70088 0)
(0.00153192 1.63708 0)
(0.977847 0.0043491 0)
(0.943381 0.0057891 0)
(0.928287 -0.00471241 0)
(0.975903 0.00824977 0)
(0.936651 -0.00127392 0)
(0.307091 0.790463 9.28376e-20)
(0.319782 0.901911 0)
(0.376185 0.556388 -1.13186e-20)
(0.117714 0.167881 0)
(0.994252 1.19122 -8.35497e-20)
(1.09665 0.941846 1.89588e-19)
(0.469722 1.93853 0)
(0.642989 1.82215 0)
(0.704505 1.80558 0)
(0.462583 0.821034 -1.3603e-19)
(0.637309 0.310361 0)
(0.617647 0.229809 4.78772e-20)
(1.07053 1.00485 0)
(1.13452 0.829256 0)
(1.14812 0.766166 -1.72341e-19)
(1.19167 0.658015 0)
(1.25131 0.437312 2.82901e-20)
(0.970103 -0.001642 0)
(0.963162 0.00170554 0)
(0.931549 -0.00291066 0)
(0.967607 0.000931721 0)
(0.957648 0.00475365 0)
(0.92673 0.00423446 0)
(0.999158 0.000492691 0)
(1.00048 0.00155334 0)
(0.999631 0.00104142 0)
(0.0249886 1.59805 1.16612e-19)
(0.041319 1.52024 0)
(0.0154513 1.64988 1.9512e-19)
(0.0165684 1.6221 -1.68269e-19)
(0.164327 1.88876 -1.84045e-19)
(0.0522328 1.77515 0)
(0.105553 1.77267 0)
(-0.00787437 1.70315 0)
(0.00490645 1.6112 0)
(-0.00116865 1.6943 -5.39217e-22)
(0.00768212 1.63576 0)
(-0.000224435 1.69893 -2.8288e-20)
(-0.000526896 1.64151 5.33552e-20)
(-0.00166043 1.70381 0)
(-0.0147239 1.69401 0)
(-0.00128814 1.61048 0)
(0.00463277 1.70235 0)
(0.00478237 1.62662 0)
(1.00548 0.00522858 0)
(0.963875 0.00163297 0)
(0.992373 0.00641949 0)
(0.949514 0.00600393 0)
(0.917117 0.000404948 0)
(0.960663 0.00231355 0)
(0.959823 0.00120206 0)
(0.917243 -0.00751 0)
(0.00335377 3.06659 -3.02795e-21)
(0.0176945 3.05632 0)
(0.015653 2.96845 0)
(0.00872972 2.87563 0)
(0.943444 4.07046 0)
(1.27533 3.28301 4.8463e-19)
(0.0798187 3.10949 0)
(-0.0146942 2.92794 0)
(0.000955918 1.75152 0)
(-0.00835052 1.75312 0)
(-0.00429459 1.75498 0)
(-0.0101193 1.78607 1.17955e-21)
(-0.0118382 1.77158 0)
(-0.00228849 1.77272 0)
(0.00653098 1.63947 2.07794e-21)
(0.00220196 1.70368 1.64618e-20)
(-0.00678272 1.70813 1.26621e-20)
(0.00329419 1.6454 0)
(0.747372 0.132471 1.21048e-19)
(0.709256 0.0595862 -1.17229e-19)
(0.197118 1.41589 0)
(0.290801 1.27075 -9.28692e-20)
(0.12597 1.444 -2.7043e-19)
(0.142525 1.38934 2.69874e-19)
(0.915439 -0.00233772 0)
(0.959889 0.00129766 0)
(0.95984 0.00586222 0)
(0.909003 0.00176462 0)
(-0.00178853 1.69973 0)
(-0.00183851 1.69979 0)
(-0.00318317 1.63434 0)
(0.497674 0.368413 1.72577e-19)
(0.436169 0.370457 -2.22718e-19)
(0.46545 0.290685 0)
(1.18504 0.0821036 -2.49939e-22)
(1.16683 0.0371903 0)
(1.09958 0.0388129 0)
(1.01921 0.00962465 0)
(0.762162 0.085441 0)
(0.783969 0.0767782 -5.1763e-19)
(0.720276 0.0309636 1.98205e-19)
(0.0113255 2.98301 2.44884e-19)
(-0.0318113 2.87121 1.95621e-20)
(0.00183472 3.0513 -6.45211e-21)
(0.0208037 3.04213 2.38403e-19)
(-0.0153366 2.99714 1.10837e-20)
(-0.0127724 2.94979 -4.47554e-23)
(-0.0172976 3.0113 -2.05877e-19)
(0.0142812 3.022 1.48403e-19)
(0.00699161 3.03693 -2.38669e-19)
(0.992412 0.00835457 0)
(0.98724 0.00385849 0)
(0.948228 0.00223531 0)
(0.963629 -0.00568674 0)
(0.967807 -0.00657328 0)
(0.921773 -0.0133653 0)
(0.963982 0.00770771 0)
(0.964307 0.000306402 0)
(0.921182 -0.000526019 0)
(0.493505 1.20754 1.74419e-19)
(0.607817 1.35758 0)
(0.278399 0.37213 2.08629e-20)
(0.506908 0.663906 8.27756e-20)
(0.459643 0.564882 6.36316e-21)
(0.13535 0.171346 -3.71738e-20)
(0.466878 1.10243 6.67073e-19)
(0.476732 1.0204 1.44345e-19)
(0.683306 0.247464 1.78802e-19)
(0.664824 0.273576 4.31044e-20)
(0.643422 0.206009 9.03242e-20)
(1.23494 0.491088 1.05057e-19)
(1.24383 0.280636 1.15406e-19)
(-0.00396733 1.68397 7.84705e-20)
(-0.00528094 1.62886 0)
(1.04725 0.0247839 0)
(1.01531 0.0159599 0)
(0.995237 0.00650866 0)
(0.0103079 3.07501 0)
(0.0210147 2.94318 4.24771e-19)
(0.0172657 2.9559 0)
(0.00690312 2.85012 -4.23313e-19)
(0.00315015 3.092 9.98343e-20)
(0.00591832 3.08375 0)
(0.721261 1.72387 -8.77574e-20)
(1.20553 2.38744 1.63827e-19)
(0.726514 1.87709 -5.36506e-19)
(0.0221181 2.9873 -2.02401e-19)
(0.0437566 3.01621 0)
(-0.033848 2.88606 0)
(-0.00478241 1.69193 -3.72555e-21)
(0.000541105 1.69575 -3.83663e-20)
(-0.0026903 1.63851 -1.79939e-21)
(0.254527 1.3488 2.95855e-19)
(0.331722 1.22647 -2.0438e-19)
(0.027959 1.548 1.85389e-19)
(0.0731206 1.50794 -2.28256e-19)
(0.066536 1.4389 2.64592e-20)
(0.0024017 3.11901 -6.03774e-19)
(0.0162594 3.11731 6.79066e-19)
(-0.00944972 2.97967 2.81137e-19)
(-0.00195131 2.97761 -2.59644e-19)
(-0.0207192 2.88254 -2.86486e-19)
(0.00687098 3.09644 -7.4162e-19)
(-0.000543847 3.1054 7.43851e-19)
(0.499614 0.978892 0)
(0.534885 0.809708 -4.41707e-19)
(0.420097 0.622806 2.02538e-19)
(0.42561 1.20944 3.99325e-19)
(0.447925 1.12894 -6.19844e-19)
(1.25913 0.174372 -1.64446e-20)
(1.25015 0.323038 0)
(1.24387 0.12779 4.57404e-20)
(0.00598666 1.68717 -6.85168e-22)
(-0.0118565 1.68149 0)
(0.00196717 1.61618 0)
(0.29557 1.3249 -1.06285e-19)
(0.357454 1.30093 -2.51563e-19)
(0.387466 1.19008 4.60069e-19)
(1.00259 -0.0341635 0)
(1.00695 -0.0202865 8.86435e-20)
(0.00181674 1.77559 0)
(-0.00725959 1.78331 0)
(1.00358 0.00684021 1.73915e-21)
(0.998903 0.0169699 1.81402e-19)
(-0.0107421 1.78617 -1.59128e-21)
(-0.00968001 1.78382 0)
(0.0560416 3.18931 1.37058e-19)
(0.437986 3.57439 0)
(1.11648 0.599892 1.78703e-20)
(1.01338 0.00774862 -2.414e-22)
(1.00537 0.0159432 0)
(1.00284 -0.00168617 -1.90383e-22)
(0.0594467 1.83669 0)
(0.0891723 1.70107 0)
(0.00098367 1.79393 0)
(0.0125654 1.7732 3.79543e-20)
(0.00112318 1.76843 1.90448e-20)
(0.993876 0.0212428 8.28187e-22)
(1.0424 0.00203668 0)
(1.0602 0.0321896 0)
(-0.00494901 1.74845 0)
(0.000471281 1.77818 0)
(0.000179943 1.7836 0)
(0.234846 1.92448 -9.45109e-20)
(1.00033 -0.0332019 0)
(0.993721 -0.0270413 0)
(1.00992 -0.00307453 1.11854e-19)
(1.00496 -0.0139696 -1.32651e-19)
(1.00359 -0.00149049 0)
(0.0033505 1.73833 0)
(0.00555959 1.76578 0)
(0.00436523 1.74959 0)
(-0.00787666 1.78503 0)
(-0.00907087 1.78072 0)
(-0.0121955 1.78434 0)
(1.01724 -0.00143326 0)
(1.01323 0.00729422 -3.00808e-22)
(0.662939 1.31117 1.24449e-19)
(1.00298 -0.000551997 -1.10943e-19)
(1.00837 0.0113256 1.36508e-19)
(1.00013 0.00167259 0)
(1.01768 0.0144884 1.07709e-19)
(1.00878 0.0162703 -1.3582e-19)
(0.99696 0.0229843 0)
(0.000410012 1.78503 0)
(-0.00450598 1.78662 7.69199e-21)
(-0.00325242 1.78381 -5.75339e-21)
(1.15959 0.243333 1.93978e-21)
(1.09898 0.0786489 0)
(0.0280484 3.06565 -3.37631e-19)
(0.0732744 2.83577 -2.44002e-20)
(0.176256 3.17406 5.82579e-19)
(0.17582 3.20975 -4.91844e-20)
(0.156496 3.26371 0)
(0.0152581 3.14365 8.4635e-20)
(0.086671 3.1522 3.26044e-19)
(0.0791037 3.1767 -1.6147e-19)
(0.0227733 3.13254 0)
(0.700725 0.354491 0)
(0.637938 0.391429 0)
(1.02824 0.627633 -7.132e-20)
(1.06851 0.782002 1.11888e-19)
(1.12143 0.526374 0)
(1.16833 0.512163 0)
(1.01386 7.23175e-05 -2.07166e-19)
(1.01753 -0.00527694 2.57538e-19)
(1.01237 0.0107495 0)
(1.01208 0.0116262 0)
(1.01135 0.00414142 0)
(1.02189 0.00803071 0)
(1.00843 -0.00242452 0)
(1.02597 0.0116747 0)
(1.02117 0.0168585 0)
(1.01913 0.00766309 0)
(0.0441384 1.82502 0)
(0.0116379 1.82656 0)
(0.09792 1.86649 0)
(0.083328 1.87794 0)
(0.0817885 1.69553 0)
(0.0695362 1.67265 -1.22579e-19)
(0.0863312 1.72492 0)
(0.0653725 1.72467 6.68187e-20)
(0.00421006 1.75257 -6.94768e-20)
(0.0019036 1.79348 0)
(0.00156021 1.79232 0)
(0.00364888 1.79934 0)
(0.00514799 1.8134 0)
(0.00433133 1.76294 -2.23224e-20)
(-0.00162944 1.77126 2.69672e-20)
(0.00196887 1.77787 3.37966e-20)
(0.000867357 1.77584 0)
(0.00219789 1.77275 -4.36888e-20)
(0.00784132 1.76973 -2.78629e-20)
(0.000893342 1.75963 1.80674e-20)
(-0.0076292 1.76293 -3.50252e-20)
(-0.00277219 1.77065 -4.17326e-20)
(1.00005 0.0210369 1.99783e-19)
(1.00377 0.0105307 -2.45498e-19)
(0.999146 0.0173548 -2.07056e-19)
(0.976846 0.0114113 2.62169e-19)
(1.04008 0.00851438 0)
(1.04604 -0.00438622 0)
(1.05883 0.0290795 0)
(1.04328 -0.000604758 0)
(1.06191 0.0131352 0)
(1.0839 0.0790997 0)
(1.06386 0.0397428 0)
(1.08209 0.0284851 0)
(-0.00774465 1.78525 -7.15054e-22)
(-0.0042441 1.75789 0)
(-0.0116007 1.77308 0)
(0.0010845 1.78044 6.43224e-21)
(0.000158529 1.78007 -3.61323e-22)
(0.0163238 1.73974 8.29824e-21)
(0.00414559 1.74196 -8.39422e-21)
(-0.00415193 1.775 0)
(-0.00321247 1.77148 0)
(-0.00183042 1.76933 0)
(0.00367694 1.78521 0)
(0.00211093 1.78175 0)
(0.358947 1.89432 1.51911e-19)
(0.37027 1.90962 7.77743e-20)
(0.312725 1.5673 -7.26511e-20)
(0.15101 1.60147 1.83725e-19)
(0.251676 1.67742 4.6835e-20)
(1.0038 0.0151932 0)
(0.993754 -0.0139081 0)
(0.986893 -0.0105 0)
(1.03041 -0.0103679 0)
(1.01606 -0.0211806 0)
(1.01239 -0.021404 0)
(1.00533 -0.0198143 0)
(1.01602 -0.00227323 0)
(1.01343 0.0050899 1.95694e-19)
(1.01623 0.00312238 -2.46985e-19)
(1.01258 0.00671005 -1.92908e-19)
(1.01287 -0.000827248 2.46218e-19)
(0.661765 1.43872 0)
(0.590261 1.58398 1.29755e-19)
(0.772435 1.21842 8.48731e-20)
(0.85567 1.14272 -1.12724e-19)
(0.790802 2.47259 -4.38476e-19)
(0.839164 0.103641 1.22352e-19)
(1.10358 0.0927412 0)
(1.1409 0.165824 1.04347e-21)
(1.1365 0.133723 1.8086e-22)
(0.964029 0.0974564 0)
(0.185818 2.92447 1.40163e-19)
(0.12706 2.82899 -4.94635e-19)
(-0.0167153 2.40339 3.02958e-19)
(0.0887667 0.19439 -1.1552e-19)
(0.388025 3.49287 -1.60958e-19)
(0.253077 3.34195 0)
(0.260073 3.43518 2.09455e-19)
(0.304086 3.01795 -5.51834e-19)
(0.438581 3.22238 0)
(0.00881913 3.12027 1.64872e-20)
(0.0177124 3.12838 -2.02855e-19)
(0.0158553 3.12462 2.97507e-19)
(0.0387493 3.13882 0)
(0.0359883 3.14763 0)
(0.943009 2.63898 0)
(0.605837 0.719225 -6.24484e-20)
(0.962315 0.957609 -5.54769e-20)
(0.884035 1.01944 0)
(0.716545 0.950127 1.70959e-20)
(0.961249 0.807027 6.39567e-21)
(0.373979 0.530496 -3.02638e-19)
(0.720496 0.342201 -9.75572e-21)
(0.727064 0.305432 9.2644e-20)
(0.620776 0.44433 8.00108e-21)
(0.559717 0.421371 -3.37701e-19)
(0.696437 0.378537 0)
(0.69979 0.425424 1.52387e-19)
(0.694209 0.406526 0)
(0.652023 0.407022 0)
(0.665338 0.376032 0)
(0.777106 0.549351 4.5505e-20)
(1.15319 0.253959 -9.3034e-21)
(1.14809 0.394444 0)
(1.19092 0.335488 0)
(0.796697 0.217785 1.40797e-19)
(0.796488 0.499862 -7.62546e-20)
(0.703174 0.46938 1.21462e-19)
(0.871862 0.402951 -1.18435e-19)
(1.01733 -0.00545746 1.32626e-19)
(1.01751 -0.00651937 -1.35603e-19)
(1.01746 -0.00566006 0)
(1.01848 0.00457607 0)
(1.01854 0.0120995 -1.26027e-19)
(1.02104 0.0012991 1.23943e-19)
(1.0121 0.00215428 0)
(1.00924 0.00259847 0)
(1.02662 0.000390063 0)
(1.02097 -0.00540035 0)
(1.02023 0.00539449 0)
(1.02455 0.00375368 0)
(-0.00169952 1.82525 0)
(-0.0023411 1.82308 0)
(0.13738 1.84969 -3.7886e-21)
(0.218089 1.89445 4.62949e-20)
(0.112119 1.91514 1.02956e-19)
(0.127234 1.9194 -1.65715e-19)
(0.151893 1.86475 0)
(0.136747 1.76157 -4.83774e-20)
(0.1269 1.77663 0)
(0.249637 1.67873 -6.77894e-20)
(0.190623 1.63465 2.2231e-19)
(0.158698 1.79935 4.24202e-20)
(0.210064 1.85612 1.4045e-20)
(0.166255 1.86117 -1.12465e-20)
(0.25976 1.80794 -4.21832e-20)
(0.201766 1.76011 0)
(0.207106 1.75781 3.92962e-20)
(0.0212455 1.76489 -2.03445e-20)
(0.00271106 1.74552 0)
(0.040464 1.7318 7.40982e-20)
(0.015969 1.73707 0)
(0.0486431 1.73137 -7.42287e-20)
(0.0150939 1.73851 0)
(0.00249759 1.76389 -1.78881e-20)
(0.00687282 1.76116 0)
(0.00356236 1.77191 0)
(0.00409048 1.76848 2.03008e-20)
(0.0159887 1.77254 1.25214e-22)
(0.0182334 1.76639 8.30384e-20)
(0.0183218 1.77408 5.71873e-22)
(-0.00620589 1.7591 1.46596e-20)
(-0.00541639 1.75836 9.19919e-21)
(0.00329705 1.79122 0)
(0.00116992 1.78873 0)
(0.016202 1.7632 4.76483e-20)
(0.012006 1.7652 3.49797e-20)
(0.00953935 1.75983 -4.87636e-20)
(0.0317619 1.78228 0)
(0.00941514 1.75745 -2.4377e-20)
(0.00135475 1.76024 1.10407e-20)
(0.000867026 1.76084 -3.50866e-21)
(-0.00663377 1.76137 -1.79309e-20)
(0.00828616 1.76732 -6.09608e-21)
(0.00219992 1.77246 2.89235e-20)
(1.01282 -0.00292665 -1.31256e-19)
(1.01025 0.00593576 1.30435e-19)
(1.01181 -0.000902777 0)
(0.988011 0.0637802 1.91088e-19)
(0.973948 0.0259776 -2.16062e-19)
(0.945504 0.0133311 2.47623e-19)
(0.983847 0.0802615 -2.51115e-20)
(1.02498 0.00813124 0)
(1.03461 0.00807739 1.15201e-19)
(1.03192 0.00588077 -1.14645e-19)
(1.01673 0.0272085 -6.64768e-21)
(1.02068 0.0152352 5.89771e-20)
(1.00077 0.0365134 0)
(0.989493 0.0289899 -2.06716e-20)
(1.00775 0.0178285 0)
(1.00079 0.0219807 0)
(1.01382 0.00289626 0)
(1.01508 0.00257151 0)
(1.00281 0.0131727 4.34023e-20)
(1.00185 0.017383 -9.6205e-20)
(0.990621 0.0188855 -4.63073e-20)
(0.985699 0.0123205 -5.09918e-20)
(0.994177 0.0511865 9.29439e-20)
(1.0392 0.0436628 0)
(1.03546 0.0899835 0)
(0.0221236 1.76175 -9.14894e-21)
(0.0175047 1.75425 -9.82688e-22)
(0.0218843 1.75158 0)
(0.0134827 1.77505 9.33591e-21)
(-0.00373437 1.78143 1.633e-21)
(0.00525848 1.78069 -1.77376e-21)
(0.00951272 1.77276 2.47328e-20)
(0.00321447 1.76642 -1.40075e-21)
(0.00938894 1.76566 6.60699e-21)
(0.0099551 1.77304 -1.27654e-20)
(0.0104272 1.77232 1.51493e-20)
(0.00566004 1.77011 -2.92138e-23)
(0.0187317 1.75856 1.1227e-20)
(0.33121 1.81212 -6.06517e-20)
(0.276939 1.79837 4.6302e-20)
(0.589305 1.71107 -1.24736e-19)
(0.476741 1.84943 -7.47866e-20)
(0.522349 1.78053 0)
(0.333936 1.57267 7.66761e-20)
(0.350907 1.5495 1.08794e-19)
(0.202399 1.59911 1.76644e-20)
(0.19775 1.59349 -2.52939e-19)
(0.271396 1.59787 2.04473e-19)
(0.293819 1.59604 0)
(0.223096 1.6013 -1.58416e-19)
(0.0708542 1.65242 3.19347e-19)
(0.132107 1.63587 -1.71752e-20)
(0.0570911 1.62905 -4.32354e-19)
(0.763731 1.42927 3.48455e-19)
(0.599297 1.48442 0)
(1.03518 -0.00758976 4.29728e-21)
(1.02499 0.0130663 -3.64646e-21)
(1.02067 0.0246687 -6.46936e-20)
(1.02149 0.0162136 6.5407e-20)
(1.03086 -0.00219401 0)
(0.304984 1.38079 0)
(0.210037 1.25238 0)
(0.5338 0.996179 0)
(0.299918 1.06618 0)
(0.807105 2.42294 8.16153e-20)
(0.807364 2.08869 0)
(0.434432 2.41643 1.98654e-21)
(0.526663 1.81032 0)
(0.62979 1.91816 -2.37087e-19)
(0.579573 2.06908 1.49325e-19)
(0.847247 0.140247 0)
(0.827573 0.167103 3.51834e-20)
(0.915504 0.110886 1.79039e-19)
(0.866701 0.110801 -7.08461e-20)
(0.853667 0.0829056 -2.20107e-19)
(0.995677 0.204245 -1.20466e-19)
(0.915836 0.276334 -4.85327e-21)
(0.849584 0.255837 1.61651e-19)
(0.911214 0.204684 1.27434e-19)
(0.936351 0.142901 -2.28061e-19)
(0.915602 0.146449 2.89662e-20)
(0.885287 0.214686 -5.93654e-20)
(0.915422 0.178419 0)
(0.964204 0.136736 1.10442e-19)
(0.962454 0.142464 0)
(0.962068 0.189431 0)
(1.04256 0.0937284 4.07986e-20)
(0.990783 0.132722 -6.15774e-21)
(0.993593 0.197882 -2.00275e-20)
(1.04906 0.179955 0)
(1.00883 0.0304589 1.00343e-19)
(1.00415 0.0418583 1.20761e-19)
(1.00899 0.0352159 -9.80209e-20)
(1.0126 0.0553058 -8.12983e-20)
(0.998025 0.0621236 -1.34859e-19)
(0.953035 0.0797771 0)
(0.951616 0.0744204 0)
(0.933365 0.047608 -8.86799e-20)
(0.908745 0.060145 3.71615e-20)
(1.00255 0.0847739 1.14665e-19)
(0.995306 0.0987886 -1.21402e-19)
(1.00524 0.106995 1.06375e-19)
(0.996461 0.115183 0)
(1.00723 0.0888862 0)
(0.999129 0.0777953 -5.07704e-20)
(1.0062 0.0835198 -9.20082e-20)
(0.00446614 1.82199 -6.58227e-20)
(0.188085 2.70956 5.32394e-20)
(0.768443 3.06273 1.38286e-19)
(1.0189 3.33092 -5.85057e-20)
(0.92928 2.74815 4.95296e-19)
(1.01679 2.77633 -1.91706e-19)
(0.816238 2.14135 1.50496e-20)
(0.960314 3.18942 1.90629e-19)
(0.95383 3.14948 -2.44747e-19)
(1.06427 3.46376 -1.67758e-19)
(1.21629 3.12045 1.98211e-19)
(1.20176 2.96874 0)
(0.639301 0.696291 6.36389e-21)
(0.214849 1.19547 2.34827e-19)
(0.472492 0.651587 1.90953e-19)
(0.312012 0.396207 2.1965e-19)
(0.55733 0.456339 1.9071e-19)
(0.566847 0.489016 -2.90688e-19)
(0.543632 0.563824 2.39373e-19)
(0.498198 0.507746 -1.10133e-19)
(0.478567 0.459089 2.39636e-19)
(0.796854 0.262223 -7.86753e-20)
(0.756813 0.294639 0)
(0.756567 0.270442 4.86035e-21)
(0.689984 0.49076 7.68268e-20)
(0.659015 0.467414 -2.87192e-19)
(0.596792 0.509626 1.25419e-20)
(0.632957 0.479867 0)
(0.666883 0.625232 3.79317e-20)
(0.789638 0.758903 -2.7532e-21)
(0.709647 0.79193 -2.04611e-21)
(0.795523 0.706643 -8.07866e-21)
(0.840945 0.808796 4.2902e-21)
(0.833569 0.786065 -4.40306e-21)
(0.818172 0.540071 -8.43763e-20)
(0.880979 0.608598 7.56392e-21)
(0.947516 0.654085 0)
(0.949172 0.637605 -9.5971e-21)
(0.943117 0.275912 3.16645e-20)
(1.06113 0.270876 1.57769e-20)
(0.977387 0.244424 4.84114e-20)
(0.923745 0.331824 -6.87748e-20)
(0.986917 0.395483 0)
(1.0245 0.378447 0)
(0.848024 0.336459 5.83241e-21)
(0.813907 0.30179 0)
(0.831156 0.282317 8.35639e-20)
(0.845548 0.265561 -3.72281e-21)
(0.865469 0.407078 3.23774e-19)
(0.821183 0.468233 8.17554e-20)
(0.806838 0.439116 -1.0793e-19)
(0.744334 0.409872 1.1605e-19)
(0.72802 0.412686 7.79318e-20)
(0.720341 0.407753 -7.56932e-20)
(1.01261 0.00731181 1.06584e-19)
(1.01207 0.00246054 0)
(1.0118 0.0138508 7.08644e-20)
(1.01361 0.00960099 -1.59497e-19)
(1.01251 0.00495166 7.7128e-20)
(1.01329 0.00648445 -1.62468e-19)
(1.01207 0.0020118 0)
(1.01341 -0.0046569 -3.36749e-20)
(1.01399 0.000238566 8.43288e-20)
(1.01995 -0.00452741 -4.28584e-20)
(1.0195 -0.0028091 3.14099e-20)
(0.00444774 1.81562 0)
(0.00406233 1.77317 0)
(-0.000310908 1.81948 0)
(0.00469902 1.81875 0)
(0.027123 1.79632 2.57676e-20)
(0.0434662 1.80808 -6.46901e-21)
(0.0989573 1.77951 -1.47622e-20)
(0.100752 1.79514 -3.47774e-21)
(0.012696 1.77201 -3.26069e-20)
(0.0133959 1.77871 2.38348e-20)
(0.0210489 1.79445 -6.42893e-21)
(0.00440921 1.79459 -9.47788e-21)
(0.00396922 1.78834 -1.27524e-21)
(0.00286812 1.77879 -3.32093e-21)
(0.0714859 1.74199 -7.89399e-20)
(0.0893824 1.74164 0)
(0.0973129 1.73754 4.99303e-20)
(0.114006 1.77198 3.24429e-20)
(0.147139 1.70938 -3.5247e-20)
(0.110924 1.65484 0)
(0.111271 1.63984 -2.30144e-19)
(0.163731 1.63464 1.61994e-19)
(0.142675 1.7214 -9.62232e-20)
(0.118432 1.72615 5.35472e-20)
(0.0807804 1.68705 0)
(0.0201096 1.76244 -5.70973e-20)
(0.0153647 1.76301 -7.42415e-20)
(0.0139584 1.76082 0)
(0.0284141 1.7693 -1.76355e-21)
(0.0277864 1.76985 2.96803e-20)
(0.00237709 1.77719 3.07503e-21)
(0.0059199 1.78376 -4.92277e-20)
(0.00359164 1.77915 1.24029e-20)
(-0.00713633 1.7604 1.84565e-20)
(0.0030498 1.76317 0)
(0.00122224 1.78523 0)
(-0.000318392 1.78796 1.41265e-20)
(0.00201594 1.78887 -4.22652e-21)
(0.00116264 1.78855 0)
(0.000434069 1.78949 1.1681e-20)
(-0.00485185 1.78525 -2.24751e-20)
(1.00659 0.0164749 0)
(1.00697 0.0196628 -1.05959e-20)
(1.0041 0.0147032 -7.70521e-20)
(1.00994 0.0197331 0)
(1.0117 0.0268331 0)
(1.00154 0.0103422 -2.38858e-21)
(1.00334 0.00932391 1.25556e-19)
(1.00375 0.0106229 1.55183e-19)
(1.01648 0.0049018 0)
(1.01552 0.00609419 0)
(1.00178 0.0169202 7.82687e-20)
(1.00147 0.0148091 0)
(1.00728 0.013432 0)
(0.00405179 1.74553 0)
(0.0117561 1.76008 7.73441e-22)
(0.00979308 1.75038 5.62304e-21)
(0.00279438 1.78597 0)
(0.00232542 1.77133 7.79572e-21)
(0.00649356 1.78164 -3.49234e-21)
(0.00353157 1.78603 0)
(0.351005 1.72433 0)
(0.295938 1.76659 -1.07739e-19)
(0.279492 1.74742 0)
(0.34439 1.76407 8.85699e-20)
(0.357 1.77621 0)
(0.358365 1.79485 -2.01217e-20)
(0.764361 1.82097 -6.91653e-21)
(0.771673 1.42472 -4.18526e-19)
(0.850178 1.4079 3.81464e-19)
(0.63791 1.48175 1.13739e-19)
(0.630322 1.61239 0)
(0.694463 1.65184 0)
(0.742856 1.43112 0)
(0.706927 1.4193 -4.10587e-19)
(0.409504 1.72252 -2.18643e-19)
(0.551013 1.60533 -5.86494e-20)
(0.54543 1.739 4.75346e-20)
(0.391977 1.55076 0)
(0.541255 1.51755 0)
(0.467546 1.5293 -1.28955e-19)
(0.505312 1.59706 0)
(0.304029 0.920259 0)
(0.48495 0.597209 3.77057e-19)
(0.633607 0.559696 2.34807e-20)
(0.0275951 1.11773 0)
(0.370215 1.23514 -5.67832e-19)
(0.722928 0.789477 1.53662e-20)
(0.667047 0.877891 0)
(0.66523 0.906756 -2.64765e-20)
(0.544395 0.691121 0)
(0.581533 0.743639 0)
(0.733068 2.68351 4.00805e-20)
(0.720382 2.96095 -5.02117e-21)
(0.411709 2.79343 -5.83934e-20)
(0.373331 2.60118 -3.15171e-20)
(0.783072 2.34682 0)
(0.778765 2.27337 4.01344e-20)
(0.816978 2.02591 3.41078e-20)
(0.859997 1.75285 3.34257e-21)
(0.211301 2.07134 0)
(0.00558046 1.71031 5.73828e-20)
(0.0713193 1.68458 0)
(0.889388 0.194392 0)
(0.829887 0.176838 0)
(0.798404 0.17465 0)
(0.871692 0.214073 -1.31805e-19)
(0.81583 0.21063 8.3088e-20)
(0.901591 0.0632164 -7.74052e-20)
(0.911015 0.0872771 0)
(0.91348 0.0878935 3.37976e-20)
(0.866726 0.084461 1.41646e-19)
(0.873591 0.070198 -8.77545e-20)
(1.10363 3.54765 -3.79063e-19)
(1.0995 3.51555 0)
(1.11508 3.51411 -7.3181e-19)
(0.671503 3.65174 6.98839e-19)
(0.899898 3.21504 1.83558e-19)
(0.695792 0.733015 -2.0023e-20)
(0.572713 0.802306 0)
(0.559811 0.601435 -3.62302e-20)
(0.593716 0.645589 1.03259e-19)
(0.54248 0.64616 -5.37938e-20)
(0.519896 0.581278 6.01119e-20)
(0.604758 0.533995 1.15983e-19)
(0.658908 0.515469 0)
(0.651703 0.625374 0)
(0.573701 0.589079 0)
(0.979313 0.547793 -1.71067e-20)
(0.826925 0.489092 -7.83133e-20)
(0.840672 0.515394 4.10343e-20)
(0.854577 0.500972 -5.84976e-20)
(1.00109 0.472714 0)
(1.01476 0.523954 -4.45876e-21)
(0.78006 0.373343 -1.7246e-19)
(0.791774 0.370474 -1.94978e-19)
(0.763149 0.36489 1.34469e-19)
(0.760546 0.345785 -1.48615e-19)
(0.800915 0.313094 -1.12849e-19)
(0.760185 0.311202 1.38674e-19)
(1.01197 -0.00240705 -8.13082e-20)
(1.0168 -0.000933783 1.66309e-19)
(1.00406 0.00314589 1.02506e-19)
(1.00503 0.0117932 -1.23711e-19)
(0.99809 0.0187214 0)
(1.00575 0.00795985 -1.97421e-19)
(0.0418848 1.78271 1.20791e-20)
(0.0401074 1.78044 0)
(0.0600847 1.76692 1.031e-19)
(0.0834586 1.7836 -9.22914e-20)
(0.0746941 1.79135 2.75448e-20)
(0.0565054 1.78051 0)
(-0.00701387 1.75509 0)
(-0.00253194 1.77257 -4.8483e-21)
(0.00139277 1.77936 4.39663e-21)
(0.00253305 1.77217 1.97149e-21)
(0.000911831 1.74837 -8.74948e-21)
(0.00218414 1.75312 4.99769e-21)
(0.299976 1.91637 -2.4247e-19)
(0.338427 1.82113 2.57547e-19)
(0.336527 1.76359 -5.10198e-20)
(0.375301 1.78508 9.99899e-21)
(0.346291 1.50679 0)
(0.384426 1.72084 6.38782e-20)
(0.375341 1.62941 -6.19634e-20)
(0.303154 1.76537 5.11163e-20)
(0.267575 1.76007 0)
(0.196507 1.72765 0)
(0.396231 1.63858 3.35584e-19)
(0.400217 1.57059 5.20865e-19)
(0.456411 1.60346 -3.54787e-19)
(0.361616 1.59974 -6.47209e-20)
(0.322893 1.62772 1.07088e-19)
(0.266585 1.5967 -2.63775e-19)
(0.849536 1.50217 -2.10933e-19)
(0.855297 1.67374 0)
(0.892169 1.49842 -9.28965e-20)
(0.787988 2.05999 0)
(0.793239 1.97147 0)
(0.916685 2.50808 3.01039e-19)
(0.960557 3.40648 3.3215e-19)
(0.854706 3.24229 -2.75411e-19)
(0.503456 0.984849 0)
(0.654339 0.942046 -3.88596e-20)
(0.775605 0.798813 8.46098e-20)
(0.838679 2.02376 0)
(0.675862 2.82962 -1.36106e-19)
(0.593155 2.50776 0)
(0.677798 0.616428 -8.01545e-20)
(0.756559 0.660554 1.23116e-19)
(0.769421 0.607154 -1.23493e-19)
(0.665962 0.589535 -1.53173e-20)
(0.675597 0.591297 -6.75905e-20)
(0.877159 3.09463 -2.50853e-19)
(0.821751 3.23118 2.86177e-19)
(0.884323 2.59846 -5.27265e-19)
(0.808973 2.39973 3.47126e-19)
(0.485232 2.65682 4.22532e-19)
(0.729689 2.88111 1.15207e-20)
(0.565902 3.02178 -2.4159e-19)
(0.72155 2.42905 -2.21708e-20)
(0.489573 2.46953 -1.66053e-19)
)
;

boundaryField
{
    wall-4
    {
        type            noSlip;
    }
    velocity-inlet-5
    {
        type            fixedValue;
        value           uniform (1 0 0);
    }
    velocity-inlet-6
    {
        type            fixedValue;
        value           uniform (0 3 0);
    }
    pressure-outlet-7
    {
        type            zeroGradient;
    }
    wall-8
    {
        type            noSlip;
    }
    frontAndBackPlanes
    {
        type            empty;
    }
}


// ************************************************************************* //
