/*--------------------------------*- C++ -*----------------------------------*\
| =========                 |                                                 |
| \\      /  F ield         | OpenFOAM: The Open Source CFD Toolbox           |
|  \\    /   O peration     | Version:  4.0                                   |
|   \\  /    A nd           | Web:      www.OpenFOAM.org                      |
|    \\/     M anipulation  |                                                 |
\*---------------------------------------------------------------------------*/
FoamFile
{
    version     2.0;
    format      ascii;
    class       volScalarField;
    location    "24";
    object      p;
}
// * * * * * * * * * * * * * * * * * * * * * * * * * * * * * * * * * * * * * //

dimensions      [0 2 -2 0 0 0 0];

internalField   nonuniform List<scalar> 
918
(
0.233869
0.905246
0.0125636
0.233044
-0.0063183
0.872903
-0.829699
0.408156
0.213697
-0.409225
-0.384661
0.203922
0.733803
0.5002
-1.44496
-0.0768662
0.362971
-0.703314
0.212968
-0.0102051
0.471601
0.220197
0.223218
0.21361
0.277696
0.488091
0.614296
0.016391
0.00203568
0.00158644
-0.00357185
-0.0320438
-0.0330775
0.756251
0.806879
0.829438
0.182991
0.0200316
-0.665593
-0.751591
-0.741212
-0.876729
0.401411
0.406427
-0.490557
0.411281
0.424822
0.201474
0.21301
0.213946
0.215121
0.214019
0.215463
0.118445
-0.415764
-0.456884
-0.395612
-0.398982
-0.209189
-0.423242
-0.430697
-0.363982
-0.313278
0.136719
0.20121
0.198392
0.208709
0.219083
0.844034
0.815039
0.840677
0.757693
0.77248
0.711494
0.683359
0.520624
0.541988
0.486626
0.472828
-1.87474
-2.84397
-0.85206
-0.596909
-0.000656136
-0.108435
-0.125016
0.35301
0.357089
0.360762
0.378173
0.759551
-0.689889
-0.853115
0.212734
0.211712
0.219964
0.220318
0.217476
0.215567
-0.0152364
-0.0444336
-0.0106645
0.00337794
-0.00584513
0.455326
0.449568
0.215298
0.211945
0.224697
0.246356
0.236896
-0.0197082
0.283965
0.301334
0.297792
0.469623
0.468625
0.475247
0.588828
0.552287
0.651522
0.675003
0.00414723
0.00333947
-0.0694829
-0.03895
-0.0488809
0.179189
0.171421
0.196773
0.186126
0.1884
-0.0632499
-0.197084
0.112529
0.139109
-0.573665
-0.651704
-0.755397
-0.778513
-0.893699
0.25792
0.390949
0.392936
-0.497527
-0.428633
-0.568322
-0.342475
-0.415193
0.191833
0.198819
0.193177
0.208731
0.20353
0.205139
0.217327
0.214386
0.215907
0.173889
0.273492
0.0528057
0.0200039
-0.566108
-0.464174
-0.550061
-0.393968
-0.394226
-0.200188
-0.182666
-0.219723
-0.252746
-0.414136
-0.43634
-0.423202
-0.266324
-0.202951
0.129969
0.121185
0.148614
0.154821
0.194086
0.194718
0.196686
0.195493
0.633475
0.65616
0.664507
0.637841
-3.87277
-6.95117
-0.265304
-0.123114
6.81036e-05
0.00267601
0.00171916
0.00905004
0.00131335
-0.00204736
-0.26107
-0.25036
-0.173827
-0.203744
0.337544
0.341561
0.665978
0.652643
0.638068
0.58625
0.200968
0.203171
0.20856
0.204075
-0.14951
-0.0761673
-0.10688
0.421995
0.438956
0.435546
-0.0545565
-0.139682
0.0267779
0.053757
0.322616
0.306635
0.323131
0.361728
0.39767
0.681576
0.699437
0.699732
0.7077
0.752685
0.765529
0.731357
0.160256
0.169555
0.165046
0.20012
0.197608
0.198685
0.194109
0.195522
0.192394
-0.36984
-0.733489
0.21807
0.237007
0.188626
0.204937
0.337348
0.403056
0.372432
0.383438
0.386913
-0.274972
-0.342408
-0.0364675
-0.0730961
0.0781039
0.11015
0.0925506
0.604767
0.566055
0.616046
0.589225
0.549431
0.575881
-0.773462
-2.02884
-1.27879
0.238926
0.0465238
0.136565
-0.25337
-0.308756
-0.295849
0.623398
0.71845
0.320203
0.501928
0.553172
0.435608
0.466525
0.526591
0.449705
0.485098
0.519718
0.498413
0.230367
0.221987
0.207392
0.464056
0.51203
-0.159788
-0.207145
-0.269654
-0.166916
-0.131887
-0.139987
0.684395
0.573112
0.649198
0.211518
0.21213
0.00612543
0.0040754
0.216231
0.216462
0.00179847
-0.0107183
0.118542
-1.146
-0.181811
0.20422
0.19495
0.211596
-0.411854
0.0880556
-0.449902
-0.314968
-0.304704
0.201318
0.145802
0.113118
0.00492962
-0.0473584
-0.0407553
-0.520935
0.209009
0.20717
0.211122
0.212227
0.212833
0.00370757
0.00101901
0.00181425
-0.0231135
-0.00435643
0.0002352
0.177081
0.1925
-0.478422
0.211262
0.21344
0.213266
0.206027
0.211997
0.209836
-0.0403581
-0.0216596
-0.0503254
-0.0636048
0.0514865
0.371738
0.480296
0.335051
0.100839
-0.147594
0.267347
0.335129
0.235216
0.397066
0.378044
0.399991
-0.116846
-0.273698
-0.111024
-0.168499
0.20251
0.200931
0.193277
0.190347
0.206595
0.204689
0.209162
0.206014
0.208925
0.210353
-0.351366
-0.390082
-0.395215
-0.464954
0.0477054
0.303808
-0.0268936
0.0112573
-0.137952
-0.465517
-0.385422
-0.47085
-0.452506
-0.520195
-0.32324
-0.33318
-0.292104
-0.275451
-0.405501
-0.544015
-0.42183
-0.430005
0.195878
0.194432
0.201362
0.207807
0.15464
0.157967
0.12842
0.145376
0.131038
0.0796314
0.112
0.089572
0.00167003
0.0116002
0.00374707
-0.0602954
-0.13115
-0.0131917
0.00905258
0.0174536
-0.0124503
-0.0146233
-0.0565031
-0.0741838
-0.482055
-0.599846
0.654595
0.607245
-0.210244
0.19806
0.204584
0.201202
0.206169
0.209203
0.210092
0.20789
0.204553
0.193477
0.195541
0.191154
0.191647
-0.416616
-0.558946
-0.383951
-0.443733
-0.193556
0.314949
0.063412
-0.0079079
-0.00494636
0.211801
0.631522
0.408507
0.416943
0.457366
-0.675118
-0.281508
-0.605218
-0.0110669
-0.194576
0.369446
0.420815
0.442965
0.388323
0.339164
-0.574934
0.210579
-0.360063
-0.317654
-0.121565
-0.223095
0.419372
0.362153
0.371091
0.387746
0.409887
0.365325
0.34441
0.342828
0.382231
0.387168
0.180187
-0.0290453
-0.0863722
-0.115298
0.347925
0.221302
0.274994
0.192542
0.197216
0.200111
0.198597
0.181891
0.188926
0.184738
0.190132
0.192736
0.202546
0.203134
0.19814
0.200613
-0.381811
-0.377435
-0.326375
-0.44236
-0.431198
-0.493662
-0.368609
-0.237729
-0.256254
-0.0817882
0.00512732
-0.27232
-0.376922
-0.345192
-0.328225
-0.1426
-0.0911516
-0.214598
-0.139544
-0.123064
-0.146506
-0.036493
-0.0487988
-0.547907
-0.522794
-0.457892
-0.493463
-0.322709
-0.215483
-0.195063
-0.416313
-0.632575
-0.35269
-0.259996
-0.381193
-0.422679
-0.45662
-0.335245
-0.039767
-0.0546234
-0.103407
-0.306292
-0.225819
-0.305135
0.191708
0.19269
0.192813
0.20534
0.216535
0.232196
0.198013
0.175156
0.166996
0.169871
0.145268
0.154505
0.150034
0.162102
0.181491
0.188169
0.188518
0.190622
0.175245
0.17608
0.164853
0.167891
0.146933
0.129227
0.118161
-0.0243406
-0.0053279
-0.0154849
-0.0480682
0.0020881
-0.0115334
-0.237731
-0.111475
-0.15716
-0.143394
-0.250735
0.00485381
-0.0165862
-0.39145
-0.313873
-0.504166
-0.535555
-0.610438
0.563083
0.658795
0.500053
0.2816
0.283141
0.506805
0.602902
0.259606
0.408444
0.450221
0.230147
0.481168
0.203173
0.202654
0.200154
0.199578
0.201207
-0.330575
-0.226816
-0.218435
-0.159974
-0.0498019
0.0733501
-0.0357272
-0.167808
-0.0227821
-0.0202052
0.308515
0.326007
0.270308
0.296533
0.296037
0.123669
0.197304
0.252842
0.209704
0.251165
0.270588
0.234498
0.261402
0.213285
0.169656
0.171181
0.118024
0.130606
0.110493
0.0946102
0.19316
0.171061
0.180898
0.173219
0.193791
0.221163
0.21471
0.24174
0.254494
0.179865
0.142401
0.148804
0.178617
0.141202
0.154186
0.167307
-0.108548
-0.174608
-0.144059
-0.430433
-0.338378
-0.41482
-0.446749
-0.334403
-0.0384526
-0.787199
-0.840693
-1.40209
0.14819
0.683619
0.378265
0.321923
0.408477
0.381976
0.383612
0.422843
0.425173
0.33806
0.358112
0.362297
0.306154
0.330725
0.364266
0.359624
0.194731
0.0623682
0.0518765
0.0191515
-0.0961513
-0.0632135
0.137242
0.0528232
-0.0180974
-0.00159705
0.160768
0.0586316
0.119906
0.148121
0.0700437
0.0445037
0.233895
0.305105
0.294538
0.269636
0.187677
0.197062
0.22762
0.261896
0.286492
0.324448
0.189996
0.195356
0.196554
0.194414
0.191883
0.194519
0.1943
0.196944
0.197961
0.200923
0.199783
-0.441938
-0.455946
-0.374307
-0.407956
-0.313108
-0.309403
-0.258385
-0.280524
-0.34697
-0.328255
-0.339442
-0.362412
-0.376608
-0.367215
-0.179911
-0.180726
-0.224446
-0.248542
-0.0683213
0.0646942
0.118963
0.0110741
-0.0856487
-0.0621189
-0.0351228
-0.361193
-0.364716
-0.427179
-0.327692
-0.283944
-0.498703
-0.419208
-0.424824
-0.616674
-0.520517
-0.30096
-0.115856
-0.152407
-0.211414
-0.196443
-0.140523
0.177234
0.171529
0.172265
0.167427
0.16653
0.178435
0.182467
0.184644
0.189611
0.190614
0.182537
0.186363
0.18964
-0.144292
-0.031315
-0.065239
-0.119857
-0.0619189
-0.0237833
-0.0522414
-0.206842
-0.271631
-0.270409
-0.318565
-0.440497
-0.385403
0.15093
0.137033
0.17684
0.35896
0.217783
0.142916
0.221916
0.318887
-0.0658137
0.128876
-0.0415533
0.536395
0.424856
0.56412
0.194806
-0.103709
0.0504818
0.113876
-0.106066
-0.0281225
-0.00435485
-0.10133
-0.0742195
-0.0554053
0.0494663
-0.0592459
-0.0833537
-0.336175
-0.148464
-0.0106517
-0.0261573
0.0963347
0.163946
-0.0944095
-0.159372
-0.186371
0.298771
0.31987
0.342473
0.307834
0.333803
0.256097
0.246582
0.265995
0.276022
0.269854
-1.12468
-0.8424
-1.74783
-1.03546
-0.604216
0.179794
0.136779
0.430242
0.318338
0.393043
0.374456
0.342624
0.302849
0.311526
0.349114
0.0558187
0.157748
0.134011
0.141105
0.0386138
-0.0163153
0.275661
0.267171
0.307201
0.329283
0.296205
0.332001
0.188026
0.187547
0.18674
0.183655
0.181827
0.183977
-0.23963
-0.294099
-0.22631
-0.238528
-0.261698
-0.294864
-0.23924
-0.235312
-0.174658
-0.172043
-0.143062
-0.222147
-0.187249
-0.243033
-0.301701
-0.278153
-0.33348
-0.398636
-0.420408
-0.319977
-0.235451
-0.22777
0.0735866
0.309956
0.138505
0.302634
0.171476
0.203969
0.179814
0.174517
0.215646
0.0672708
0.135788
-0.0729981
-0.602618
-0.484214
0.406119
0.474966
0.252398
0.112416
-0.175208
-0.0320888
0.22564
0.155989
0.199905
0.270147
0.262464
-0.334308
-0.295541
0.00614125
0.206825
-0.0998034
-0.162216
-0.15086
0.00660001
-0.0399047
)
;

boundaryField
{
    wall-4
    {
        type            zeroGradient;
    }
    velocity-inlet-5
    {
        type            zeroGradient;
    }
    velocity-inlet-6
    {
        type            zeroGradient;
    }
    pressure-outlet-7
    {
        type            fixedValue;
        value           uniform 0;
    }
    wall-8
    {
        type            zeroGradient;
    }
    frontAndBackPlanes
    {
        type            empty;
    }
}


// ************************************************************************* //
