/*--------------------------------*- C++ -*----------------------------------*\
| =========                 |                                                 |
| \\      /  F ield         | OpenFOAM: The Open Source CFD Toolbox           |
|  \\    /   O peration     | Version:  4.0                                   |
|   \\  /    A nd           | Web:      www.OpenFOAM.org                      |
|    \\/     M anipulation  |                                                 |
\*---------------------------------------------------------------------------*/
FoamFile
{
    version     2.0;
    format      ascii;
    class       surfaceScalarField;
    location    "24";
    object      phi;
}
// * * * * * * * * * * * * * * * * * * * * * * * * * * * * * * * * * * * * * //

dimensions      [0 3 -1 0 0 0 0];

internalField   nonuniform List<scalar> 
1300
(
3.75095
5.62643
-5.80204
3.75095
-5.73758
5.62643
-4.5478
4.5478
-1.16741
1.16741
1.87651
1.87445
-3.03643
3.03643
-2.45031
2.45031
-2.56701
2.56701
-5.24638
5.24638
-5.06753
5.06753
4.67244
-4.67244
-4.50559
4.50559
-1.61093
1.61093
-4.01537
4.01537
3.16928
-3.16928
-4.2027
4.2027
-0.381344
0.381344
-0.553104
4.30406
3.19785
3.19785
-2.25897
2.25897
-4.85854
4.85854
6.21771
-6.21771
8.77672
-8.77672
-2.97469
-3.41491
1.37234
-8.47458
-4.36524
-4.36524
-8.44024
8.44024
-2.81381
2.81262
2.94179
-2.94179
-1.8541
1.8541
-4.44897
-0.0988258
-4.44897
4.572
-0.0241985
4.572
-1.29866
0.131254
-1.29866
4.01935
-4.01935
0.995303
0.172105
0.995303
3.06477
-3.06477
-1.87717
3.75368
1.87378
-1.87168
6.17574
-1.87927
3.75372
-5.82876
5.82876
-3.25999
0.223559
-3.25999
2.76089
0.275546
2.76089
-6.05452
6.05452
-2.23569
-0.214623
-2.23569
2.81899
-0.368679
2.81899
2.83675
-2.83675
-2.64198
0.0749732
-2.64198
2.50692
0.0600947
2.50692
0.353716
5.27271
-5.98015
8.79276
-5.27271
0.0263297
5.20832
0.0380613
5.20832
-5.10571
0.0381784
-5.10571
5.01163
0.0559032
5.01163
4.75403
-0.0815979
4.75403
-4.79205
0.119613
-4.79205
-3.2544
-3.69624
-4.49465
-0.0109464
-4.49465
-1.62215
0.0112224
-1.62215
1.57609
0.0348348
1.57609
-3.47473
3.47473
-4.36827
0.352894
-4.36827
3.12341
0.0458651
3.12341
1.86903
1.88192
5.61998
-5.61998
2.45071
-3.9374
-0.2653
-3.9374
-4.44055
-4.33617
4.44055
-0.237853
-0.654226
0.272883
-0.654226
3.16011
0.0377368
3.16011
2.42748
0.0794414
-2.42748
0.1685
3.27663
-3.27663
1.63727
0.621703
1.63727
-5.57071
5.57071
4.95063
0.0609987
-4.95063
0.092089
6.1563
0.061415
6.1563
-6.19983
-0.017887
-6.19983
3.20237
-6.61729
-3.54346
4.44699
0.0586057
-4.44699
0.08175
2.91105
0.0307387
2.91105
-2.91991
2.91991
-2.98279
0.0410019
-2.98279
-2.24782
0.393723
-2.24782
1.55581
0.29829
1.55581
-4.31205
-0.136921
-4.31205
-4.50326
0.134997
4.50326
0.0687324
1.03521
-1.03521
-1.44297
0.14431
-1.44297
-4.15742
-0.154629
4.15742
-0.138069
-3.88315
-0.136201
-3.88315
-3.02318
0.040392
3.02318
0.0415897
3.11296
0.0471511
-3.11296
0.0481894
-1.87089
3.75281
-1.88007
3.75385
-5.45244
-0.376316
-5.45244
6.11778
-0.289027
6.11778
3.6481
0.367272
-3.6481
0.388108
2.56511
0.195777
2.56511
-6.31522
0.260696
-6.31522
5.54878
0.505742
5.54878
2.34484
0.220274
-2.34484
0.109145
3.18103
-0.362034
3.18103
2.86265
-0.0258984
2.86265
-2.84516
0.00840832
-2.84516
2.79715
-2.79715
2.72139
0.0757662
-2.72139
0.0794035
-11.1325
11.1146
-0.0349154
-11.0976
5.17341
5.17341
4.17077
0.583263
4.17077
-5.00454
0.212492
-5.00454
3.16296
-6.70642
3.63809
-6.89249
3.64995
-12.1245
3.33442
-7.03066
4.70132
-4.70132
4.5049
0.196424
-4.5049
0.0102518
-1.63725
0.0151017
-1.63725
-2.85962
-0.615107
-2.85962
4.1344
-0.659674
4.1344
-3.02891
3.02891
-3.07745
0.0485413
3.07745
0.0459596
3.60888
-0.427856
-3.60888
-0.328516
0.832045
0.163258
-0.832045
0.177819
3.48299
-0.206354
3.48299
-3.07785
-0.19878
-3.07785
-1.64501
0.00776046
1.64501
-0.00773868
-5.81831
0.247601
-5.81831
-11.1909
0.0933533
-11.1529
-6.10647
-6.10647
2.33377
11.1265
-2.88
0.0348409
2.88
0.0310469
2.97598
0.0529369
-2.97598
0.0560656
-2.86098
0.0638212
2.86098
0.0589357
-2.63945
0.391627
-2.63945
-1.15027
1.15027
-1.33897
0.188704
1.33897
0.216838
1.27086
-0.235652
1.27086
1.53294
0.0431555
-1.53294
0.0899636
-3.77932
-0.103834
-3.77932
6.36633
-0.24855
6.36633
-2.94305
-0.134803
2.94305
-0.0803964
-0.0333853
11.148
-5.14002
0.0343155
5.14002
-11.2094
11.2437
-3.27257
0.633122
3.27257
0.8982
5.29283
0.277873
-5.29283
0.288293
5.07749
0.471291
-5.07749
0.376169
-2.37741
-0.482216
-2.37741
-4.881
-0.571443
4.881
-0.746594
-11.474
-0.201823
11.6758
-11.4181
6.02013
0.136169
-6.02013
11.3799
-1.0271
-0.00810796
1.0271
0.123163
1.5472
-0.276338
1.5472
3.66973
-0.186745
-3.66973
-0.109587
-6.46517
0.14995
6.46517
-0.0988374
-1.93876
-0.438644
1.93876
-0.391562
-4.26662
4.30435
1.90912
-3.02003
-3.59726
-7.3562
1.85151
1.9013
4.30222
-7.62323
-4.5013
-7.54148
7.2679
-6.97961
-9.30007
9.21848
7.51224
-7.64844
-5.78691
5.83287
6.48177
-6.44018
1.87885
1.87483
7.89537
-7.67181
-15.5987
15.2224
5.6833
-5.89792
16.3313
-16.0706
-17.6796
18.1508
-5.76113
5.83611
-6.67097
6.67937
-6.85892
6.77853
-2.86341
-4.02909
10.4427
-10.4536
10.2149
-10.4802
-8.50341
8.85631
3.38188
0.922475
3.42903
-1.88246
3.76132
-1.87125
3.78037
3.68885
-6.55225
3.01757
-6.61483
5.68306
4.53186
-5.4452
-1.911
-5.91637
5.94711
-5.82778
5.88672
8.90217
-9.001
-1.88522
3.76005
-1.86863
3.76992
-3.42644
-2.36047
3.38058
0.921638
6.24813
4.19455
-6.30674
-1.23474
-7.77981
7.59306
-8.03228
7.8335
-0.443701
5.81844
-5.37474
4.41484
-1.54531
7.36374
5.7226
5.93509
5.86694
-5.58907
1.11267
-6.48741
-6.39532
-2.5471
2.69141
2.52524
-2.35313
5.9035
1.60874
5.76544
-5.55108
-2.09736
-5.65491
3.82221
2.01067
3.87075
4.07559
2.40618
4.11598
3.03123
-3.03464
0.00341498
-3.0565
6.08773
0.725404
-5.41697
-4.49533
4.82122
3.07415
5.09676
-5.49122
-2.18059
-5.10311
-9.47487
-6.12388
-10.0463
10.0683
5.15412
9.77928
-11.9217
11.8229
3.96638
1.71692
3.5977
-3.74947
-2.14845
-3.64033
13.3742
-3.36747
-10.0067
-10.6276
-7.052
10.1218
6.20946
10.3407
7.81015
10.7169
4.5371
8.83709
-10.7466
3.69456
-3.88143
-1.8797
-3.80203
3.73926
2.09684
3.79936
-4.20127
-2.46969
-4.16643
-4.22873
-2.63019
4.25463
2.42474
-4.30834
-3.72394
4.44315
2.33538
3.51858
-8.01988
3.51208
-7.54117
-7.6766
-2.77703
-7.66635
4.7509
1.84416
-6.59506
-1.80135
10.3272
-5.79532
8.41618
-5.64156
-4.83866
-5.97007
-6.79395
-1.70946
-6.65895
-8.7899
8.30768
-9.12675
8.46708
12.74
-5.72161
-7.01836
-3.96829
-2.47189
3.9201
-0.491068
-3.71204
3.71546
0.0492758
3.82965
4.75212
4.26106
-3.8887
-1.93908
-3.83263
3.83887
2.04785
3.90269
6.74413
2.15804
6.71993
-6.40882
-2.59218
-6.54574
9.06897
-8.67525
2.96518
-2.95742
5.24723
2.58627
-5.04088
-2.73893
6.07816
-3.0517
-3.02646
-12.2098
10.5928
1.61695
-4.84604
-0.431204
-0.0498608
-5.50549
-3.79458
5.38588
0.549208
11.142
7.34747
-5.5131
5.7607
6.16269
6.22369
-0.171631
5.80044
-5.16732
5.33957
-2.40335
-2.93622
5.27567
-5.43029
-1.27008
-5.21063
3.94056
0.335141
1.77966
-1.50678
-2.04379
-0.503313
-1.95383
1.51436
1.01088
1.67762
0.992339
1.69907
-2.93017
0.522807
2.40736
-1.93783
-1.83033
-3.66009
-1.04507
4.70516
5.57974
2.01332
-5.47016
-0.184758
2.73074
-2.6959
-0.782875
-2.87721
2.11576
-2.89863
-3.54177
-1.89665
5.43842
-3.37133
-0.461308
3.31839
0.552361
-3.82419
-2.09217
3.78319
0.332789
-3.12268
6.18677
-3.06409
-5.06177
2.52949
3.55823
4.54016
-4.78932
2.44524
2.34408
-1.23108
3.79315
1.30361
3.98893
-6.78585
4.60525
5.70503
3.15128
-6.0723
0.96919
-5.81666
8.41867
-7.24688
-1.1718
4.11784
4.30083
7.20454
5.53543
-5.75595
12.9605
-1.1197
-6.12718
6.93636
-3.78508
4.75918
-8.54426
-10.2946
4.16744
-9.2062
11.2056
-1.99943
-3.59816
-8.32357
12.8044
-1.20716
-11.5972
8.57212
-4.45214
-4.16761
8.61974
-7.81961
6.31605
-1.33496
-4.9811
-10.3186
-5.75196
10.1687
1.65422
-10.3388
14.0334
-1.50171
3.75189
-0.154189
3.38985
3.30199
-6.20082
2.89883
4.51762
-5.85257
1.43498
-7.6358
-6.27186
10.7571
-4.48522
-9.04889
-9.30712
0.258236
1.52157
12.5118
-9.33171
6.06017
3.27154
3.31226
0.590434
-3.38803
-0.414004
0.334325
4.53459
-4.86891
4.13368
4.21312
3.42555
1.10904
3.8314
2.1157
-3.86245
-0.303983
-4.1306
1.50041
-1.70586
-3.65732
5.15773
-4.09063
0.433309
-2.73567
-3.55622
6.29189
-4.61537
3.04117
3.1456
5.08901
-4.93813
1.38191
-2.43508
-2.50305
2.70872
-4.41458
1.96574
3.19199
4.30112
0.577189
5.84263
4.91445
-7.68679
0.145623
9.109
-7.87426
3.07102
7.64586
-9.13119
-0.175933
-7.84228
0.224721
-6.02004
-6.37034
5.04283
-6.75229
-3.50143
6.14173
0.578201
-6.21047
-0.448488
-5.96885
-2.82105
-6.40749
-3.06372
-6.06303
-8.81967
-1.62954
-7.19013
6.67814
-6.61478
-3.43153
7.36137
1.10571
-7.35197
7.34386
-7.41302
7.13668
0.094461
3.621
4.35552
1.88362
-2.38991
4.27353
-5.02499
7.18303
-8.38638
3.36138
3.89327
-6.48544
-4.49311
5.0356
4.03337
5.33389
8.96951
-10.5324
1.56284
-10.8906
12.159
-1.26836
-16.6422
5.75154
-7.67266
2.70632
0.25886
2.72142
0.674437
2.41201
-3.08645
-2.28298
-2.29072
-2.28998
-3.33681
5.6268
1.11129
-3.34829
2.23699
-3.4596
4.57089
-0.0652717
-3.28301
5.23259
-2.82058
5.49145
-3.52488
1.96658
3.25758
5.573
-2.31542
4.27473
-1.68846
1.80102
-4.11644
-1.53579
-3.01881
5.11566
-3.27308
3.70639
-0.246746
3.95314
-4.03836
0.986659
-0.612814
3.60031
3.76881
4.22523
-3.11619
2.91766
-4.60612
-1.19877
-4.02894
-0.836948
-0.325741
-3.76718
4.09292
6.08013
-6.40587
-5.26022
9.58088
-4.32066
7.74339
-5.41049
-2.3329
-4.2636
-4.41164
3.87198
1.92847
9.67186
0.230958
-5.64145
-4.93636
-4.03816
3.22829
2.11127
-2.01229
3.62924
2.06215
-0.28249
0.566177
1.11144
1.89424
-1.32806
0.217517
1.67672
-1.28926
2.01065
0.720093
-2.0538
0.099975
-1.3672
3.48295
1.04017
-2.05105
0.722986
1.02733
-3.43068
4.77428
-2.46045
-2.31383
5.80161
1.12762
-3.58807
4.08301
-3.74787
2.29843
-3.34351
-1.28964
-5.03751
-3.42877
-2.47389
4.71089
-3.1529
5.16623
1.16912
-4.98147
6.15059
-3.52698
1.63033
-3.04723
3.76733
-1.04392
-2.00332
2.74864
2.68978
-2.90649
0.0292753
-0.157848
2.29849
-2.45634
-0.600142
-2.53798
-4.57244
4.90523
-2.10728
4.55252
2.16625
-1.91352
6.46604
1.8126
-3.72613
-3.24916
-3.71047
-1.38205
3.15811
-0.0869506
-3.55338
-5.06805
3.3331
0.655828
-7.00009
7.52621
-0.526117
-3.92594
-0.679316
4.79715
-5.71693
-0.135643
-4.28195
3.24425
4.54786
5.20369
-11.4135
-0.183678
-6.25939
1.24704
-7.50643
5.54787
-3.6213
7.78873
-10.4449
7.01337
-9.3392
6.61694
-0.889493
7.00415
-4.10532
3.00257
-8.75453
-7.10031
4.87476
-3.15784
4.72057
-3.96019
8.68076
-5.4619
6.04369
2.63706
-2.01279
-3.95728
-5.04841
3.03562
0.995285
4.38514
4.96597
-2.85027
4.66199
2.22228
-4.65736
-2.1923
-6.51034
1.85298
-3.36474
-1.91225
3.76523
3.17676
3.7672
1.26218
-3.35319
8.45502
-8.19678
-3.9698
-2.40054
5.8443
-2.80869
5.01439
-7.41493
-1.00565
4.92488
-0.913805
-4.01107
0.796736
-4.29817
1.65795
-5.95611
5.09434
-5.54283
2.15896
-9.83162
-5.193
-5.06984
-2.22172
-5.19131
-7.66844
5.44672
-1.9169
5.42696
-8.6812
7.7674
-3.47779
8.92451
-5.38572
-1.02177
5.77728
1.3594
10.2839
0.124822
-4.61794
-1.86708
3.99401
-2.12693
1.36122
-3.64235
0.351659
2.42485
3.37676
-6.36541
-0.120037
-4.73797
-3.92047
7.95384
5.66041
11.7405
1.20819
9.1522
-1.19836
10.3604
4.13553
4.35237
-3.02043
4.58327
1.07249
4.43387
-0.852798
2.81937
1.86862
1.87985
0.816058
2.29788
1.47093
3.28454
0.19809
-2.09263
4.64469
-8.68286
-0.996756
-8.09959
1.11888
5.83934
-4.72045
3.17608
-1.06481
1.04915
0.124221
-1.74883
1.62461
-2.812
-2.03132
-0.354598
-1.62988
2.35287
1.85307
-1.99827
-0.813724
0.322218
-3.75099
3.02129
-2.99201
-0.302236
5.84835
-2.70952
0.253182
-1.07919
-2.28479
-2.78811
2.68813
6.1745
0.291542
3.11041
5.19677
3.10459
0.254323
3.75678
-5.75621
-3.87902
-5.93989
-0.392015
4.40514
3.90639
8.60541
6.54346
3.73477
-3.68016
-11.8769
6.51495
-1.93169
5.24659
-1.23552
-4.72059
4.94317
2.23986
-5.52137
-0.0214542
-4.74205
-6.67373
-0.595288
8.36269
-9.68863
8.66686
5.84581
1.34432
-4.38148
-0.688365
4.19277
0.159599
10.52
-1.18095
-6.81605
7.997
-4.65839
3.66163
0.834262
2.79497
2.45887
1.39407
-5.42199
-10.1424
-1.91249
-1.51818
-4.22632
0.478841
-2.33191
6.29654
-2.63491
3.96364
5.36209
6.41124
-2.18233
-4.22355
6.50299
-2.53935
3.87189
)
;

boundaryField
{
    wall-4
    {
        type            calculated;
        value           uniform 0;
    }
    velocity-inlet-5
    {
        type            calculated;
        value           uniform -3.75095;
    }
    velocity-inlet-6
    {
        type            calculated;
        value           uniform -5.62643;
    }
    pressure-outlet-7
    {
        type            calculated;
        value           nonuniform List<scalar> 8(5.80204 5.73758 6.3896 7.10224 6.95064 6.74583 6.80105 6.98437);
    }
    wall-8
    {
        type            calculated;
        value           uniform 0;
    }
    frontAndBackPlanes
    {
        type            empty;
        value           nonuniform 0();
    }
}


// ************************************************************************* //
