/*--------------------------------*- C++ -*----------------------------------*\
| =========                 |                                                 |
| \\      /  F ield         | OpenFOAM: The Open Source CFD Toolbox           |
|  \\    /   O peration     | Version:  4.0                                   |
|   \\  /    A nd           | Web:      www.OpenFOAM.org                      |
|    \\/     M anipulation  |                                                 |
\*---------------------------------------------------------------------------*/
FoamFile
{
    version     2.0;
    format      ascii;
    class       volVectorField;
    location    "24";
    object      U;
}
// * * * * * * * * * * * * * * * * * * * * * * * * * * * * * * * * * * * * * //

dimensions      [0 1 -1 0 0 0 0];

internalField   nonuniform List<vector> 
918
(
(0.985082 -0.000581873 0)
(0.00476834 2.96626 0)
(-0.0146407 1.53593 0)
(0.979828 0.0024124 0)
(-0.00156937 1.52264 1.13591e-20)
(-0.00704322 2.9489 -8.03407e-19)
(0.848809 1.20552 3.00622e-19)
(0.388197 0.182916 -3.61532e-21)
(0.999905 -0.000304797 0)
(0.0474461 0.887226 0)
(-0.0509522 0.699364 0)
(0.734844 -0.0105876 0)
(0.0115055 2.93011 0)
(0.00250803 2.79461 0)
(-0.0188502 3.16099 4.75134e-19)
(0.0133486 1.36666 3.48101e-20)
(0.498643 0.0797098 2.25772e-19)
(0.173393 1.24498 2.57978e-19)
(0.962173 0.00385917 0)
(-0.0086467 1.20669 0)
(0.120697 0.223331 -1.89016e-19)
(1.00221 -0.00520624 0)
(1.00075 -0.0101379 0)
(0.975994 -0.00652283 0)
(0.641418 -0.035841 0)
(0.0182904 2.63308 0)
(-0.0149405 2.91021 2.63559e-19)
(-0.024145 1.55246 0)
(-0.0368836 1.70385 0)
(-0.0226414 1.54652 0)
(-0.00509739 1.89955 0)
(0.0135724 1.55539 -8.80902e-21)
(0.00448321 1.39962 0)
(-0.0204561 2.9875 -2.80603e-23)
(-0.0169904 3.00541 6.38218e-19)
(0.0020197 3.00017 0)
(0.869617 -0.00954344 0)
(0.431348 0.970846 -9.60846e-21)
(0.816771 1.22585 -4.10319e-19)
(0.963449 1.05499 3.88746e-19)
(0.685541 1.32778 -6.94347e-20)
(0.690389 1.31555 3.91836e-19)
(0.426445 0.273254 3.5252e-21)
(0.416068 0.16982 0)
(1.15812 0.583117 0)
(0.393581 0.279765 1.6451e-20)
(0.336169 0.178524 -1.70821e-20)
(0.919492 -0.00732247 0)
(1.0003 0.000156445 0)
(0.999914 0.000346863 0)
(1.00348 -0.00769186 0)
(1.00096 -0.000988283 0)
(1.00019 6.41109e-06 0)
(0.0700466 1.7695 -9.06148e-20)
(0.0199769 1.00228 0)
(0.0975178 0.964432 0)
(0.0382513 0.939286 0)
(0.0277899 0.799621 0)
(-0.109434 1.79017 0)
(-0.0311379 0.772216 0)
(-0.00526909 0.62337 0)
(-0.0505416 0.859515 0)
(-0.0473618 0.820818 0)
(0.827355 -0.0107419 0)
(0.850755 0.0186197 0)
(0.760193 0.00289527 0)
(0.835804 0.0190771 0)
(0.720246 -0.0143252 0)
(0.0153517 3.00064 2.8795e-19)
(0.011713 3.00828 0)
(0.00650015 3.00262 0)
(0.0141609 2.99718 3.17366e-24)
(0.00838788 2.9585 -4.35092e-19)
(0.0152026 2.98189 0)
(0.0111816 2.9037 0)
(0.0259943 2.93002 5.524e-25)
(0.00465881 2.82489 0)
(0.0321909 2.91537 0)
(-0.00635923 2.74513 0)
(0.307601 3.55817 0)
(-0.14572 3.63615 0)
(0.138123 3.2533 -4.38575e-19)
(-0.00946504 2.98929 0)
(-0.055726 1.854 0)
(0.0561348 1.53984 -3.43307e-20)
(0.0123863 1.32458 5.4591e-20)
(0.567552 0.15966 -7.79006e-20)
(0.498754 0.0567844 -7.56187e-20)
(0.551282 0.1812 -2.34392e-19)
(0.484417 0.103983 -1.5831e-19)
(0.184425 0.882571 0)
(0.250275 1.37921 -2.64841e-19)
(0.374966 1.34067 4.38556e-19)
(0.987519 0.00822986 0)
(0.94158 0.00548628 0)
(1.00031 0.00043061 0)
(1.00325 0.00949218 0)
(1.00286 0.00782764 -4.42726e-19)
(0.991794 0.00988377 3.37899e-19)
(-0.0320096 1.3345 0)
(-0.0331998 1.14398 0)
(-0.0397746 1.55557 0)
(-0.03097 1.42315 0)
(-0.00489265 1.27815 0)
(0.183352 0.235117 5.8389e-20)
(0.228508 0.214796 0)
(0.993353 -0.00820248 0)
(0.954486 -0.00602894 0)
(0.803905 0.025573 0)
(0.772493 0.0382914 0)
(0.700006 -0.0290929 0)
(0.974737 -0.000733322 0)
(0.709698 0.0604059 0)
(0.552678 -0.0116539 3.00271e-19)
(-0.0354949 2.86635 1.31224e-19)
(0.0437294 2.90815 0)
(0.0567448 2.88307 0)
(-0.0049759 2.69658 0)
(-0.0138135 2.98499 2.41039e-19)
(-0.0183495 2.89522 0)
(-0.0159444 2.98804 -7.66431e-19)
(-0.0132638 2.92536 2.65924e-19)
(-0.0491759 1.78248 0)
(-0.0468952 1.79708 0)
(0.0311068 1.54266 7.1788e-22)
(0.0198937 1.52945 0)
(-0.002911 1.38648 0)
(0.937088 -0.00766351 0)
(0.855681 -0.00896414 0)
(0.862955 0.00718929 0)
(0.948651 -0.0077552 0)
(0.883256 -0.00792387 0)
(0.54174 1.16685 7.59511e-21)
(0.593446 1.20817 0)
(0.394605 0.918924 2.42635e-21)
(0.334708 0.777561 0)
(0.926888 1.0917 -1.11568e-19)
(1.03741 0.892087 2.30445e-19)
(0.377433 1.42088 0)
(0.542246 1.39432 0)
(0.538457 1.35593 0)
(0.113375 0.174331 -5.56288e-20)
(0.472297 0.260381 0)
(0.456292 0.155514 4.53253e-20)
(1.01296 0.945541 0)
(1.08592 0.795408 0)
(1.1077 0.738104 -2.03915e-19)
(1.13693 0.636369 0)
(1.18559 0.419143 2.48393e-20)
(0.957397 -0.00832321 0)
(0.962136 -0.010303 0)
(0.901743 -0.00746632 0)
(0.984321 -0.00914972 0)
(0.97471 -0.00944279 0)
(0.937398 -0.0058835 0)
(1.00016 0.00215356 0)
(1.00085 0.00140945 0)
(0.999873 0.000913706 0)
(0.0284194 2.01909 5.83302e-20)
(0.0990126 1.70056 0)
(0.00959585 2.10964 4.75179e-20)
(0.0350115 1.84181 -1.07799e-20)
(0.127073 1.23979 -2.13638e-19)
(0.0531072 1.09698 0)
(0.0912192 1.10119 0)
(-0.00251701 0.871415 0)
(0.00366209 0.728541 0)
(-0.0690678 2.04138 1.31732e-21)
(-0.0374198 1.88717 0)
(-0.0878305 1.90699 8.23664e-20)
(-0.118246 1.61772 -1.70276e-19)
(0.0294137 0.813078 0)
(0.0159409 0.767017 0)
(0.00164739 0.660627 0)
(-0.0639731 0.971721 0)
(-0.0527631 0.92601 0)
(0.924076 0.011898 0)
(0.840175 -0.00604088 0)
(0.916293 -0.000126994 0)
(0.832413 -0.0128705 0)
(0.809709 0.00518185 0)
(0.902784 0.0175724 0)
(0.878947 0.0200636 0)
(0.783214 0.00494179 0)
(0.00433154 3.06448 -2.38025e-21)
(0.0165582 3.05769 0)
(0.0153163 2.96905 0)
(0.00890475 2.87639 0)
(0.967411 3.99852 0)
(1.31314 3.25983 4.9079e-19)
(0.0702449 3.08027 0)
(-0.0251216 2.90968 0)
(-0.0691695 1.78778 0)
(-0.0750728 1.83838 0)
(-0.0585703 1.81234 0)
(-0.0291842 1.89248 1.67419e-21)
(-0.0670603 1.87156 0)
(-0.0415803 1.86483 0)
(-0.0300615 1.34904 -1.02714e-20)
(0.0422825 1.55121 -8.9389e-20)
(0.0664016 1.53272 -5.57433e-20)
(-0.00424183 1.30359 0)
(0.599754 0.127487 1.14611e-19)
(0.512071 0.0263604 -1.11807e-19)
(0.267002 1.52037 0)
(0.232261 0.656718 -8.23649e-20)
(0.173867 1.62098 -2.71398e-19)
(0.201556 1.1445 2.72119e-19)
(0.902185 0.00603431 0)
(0.967496 0.0106809 0)
(0.974643 0.0107338 0)
(0.923505 0.00619116 0)
(-0.068673 1.10381 0)
(-0.0484479 1.23253 0)
(-0.0553658 1.04831 0)
(0.346168 0.273534 1.50727e-19)
(0.289863 0.252673 -1.83469e-19)
(0.291753 0.197565 0)
(1.10062 0.0864051 -1.42237e-21)
(1.08164 0.0396499 0)
(1.01166 0.0405503 0)
(0.91157 0.00448555 0)
(0.624517 0.0971475 0)
(0.65193 0.0699986 -4.84041e-19)
(0.531588 0.00811447 1.84986e-19)
(0.00947811 2.9825 1.67445e-19)
(-0.0319648 2.86824 1.96791e-20)
(0.00200177 3.04962 -5.15284e-21)
(0.0206951 3.04326 1.92047e-19)
(-0.0153361 2.99627 8.85146e-21)
(-0.0127924 2.94943 -3.59208e-23)
(-0.0175797 3.01153 -1.67123e-19)
(0.0142036 3.02314 1.20284e-19)
(0.00668523 3.03674 -1.91867e-19)
(0.928274 -0.0027837 0)
(0.936896 -0.00370672 0)
(0.841446 -0.0075779 0)
(0.956737 0.0112913 0)
(0.943325 0.0127958 0)
(0.88187 0.0057413 0)
(0.919085 0.0151033 0)
(0.927127 0.0148648 0)
(0.838219 0.00608077 0)
(0.760413 1.43737 1.49089e-19)
(0.804528 1.53067 0)
(0.258931 0.405083 1.25492e-20)
(0.209052 0.647041 1.03679e-19)
(0.305299 0.746628 -5.82542e-20)
(0.264449 0.622946 1.05813e-19)
(0.299107 0.739639 3.10421e-19)
(0.110801 0.210156 8.56984e-20)
(0.529731 0.207985 1.69551e-19)
(0.502783 0.237603 4.27197e-20)
(0.478484 0.134621 8.61678e-20)
(1.17667 0.47429 1.19467e-19)
(1.18948 0.272361 1.24962e-19)
(0.0182056 2.12885 -2.98845e-21)
(0.0215955 1.92596 0)
(0.963952 0.0323823 0)
(0.930409 0.0192011 0)
(0.867268 -0.00490295 0)
(0.0111496 3.07448 0)
(0.0208118 2.94409 3.2547e-19)
(0.0172037 2.95637 0)
(0.00650715 2.85064 -3.24379e-19)
(0.0056547 3.09202 7.49336e-20)
(0.00581218 3.08173 0)
(0.890536 1.83613 -1.03703e-19)
(1.27777 2.39118 2.32404e-19)
(0.870881 1.94128 -5.8966e-19)
(0.0205697 2.98408 -1.22105e-19)
(0.0367042 3.00576 0)
(-0.0326084 2.88137 0)
(-0.063112 1.73781 -7.88071e-21)
(0.00994058 1.64603 2.06826e-19)
(-0.026847 1.47367 -9.66448e-21)
(0.279003 1.34176 2.66559e-19)
(0.185792 0.449385 -1.82305e-19)
(0.0541908 1.95166 1.82384e-19)
(0.155401 1.84294 -2.35203e-19)
(0.147057 1.42476 3.8853e-20)
(0.00531182 3.11809 -4.15019e-19)
(0.0117424 3.11874 4.69809e-19)
(-0.00954907 2.98049 2.084e-19)
(-0.0042396 2.97794 -1.83399e-19)
(-0.0217831 2.88191 -2.12365e-19)
(0.00760693 3.09859 -5.48401e-19)
(0.000714888 3.10536 5.55842e-19)
(0.235181 0.65819 0)
(0.200885 0.658726 -1.96639e-19)
(0.142603 0.25729 8.88361e-20)
(0.318378 0.848606 2.55555e-19)
(0.164893 0.241102 -3.92427e-19)
(1.18401 0.177574 -2.18056e-20)
(1.18853 0.320101 0)
(1.17023 0.128011 4.8803e-20)
(-0.0670127 2.10821 9.99839e-22)
(-0.0221598 2.14588 0)
(-0.017804 1.94206 0)
(0.343523 1.22413 -9.7145e-20)
(0.353878 1.04332 -2.07038e-19)
(0.174455 0.324526 3.55696e-19)
(1.0055 -0.0112646 0)
(1.00747 -0.00743284 8.11999e-20)
(-0.0599762 1.74609 0)
(-0.0677647 1.74533 0)
(1.00199 0.00347319 8.13588e-22)
(1.00376 0.00995982 1.65891e-19)
(-0.0277567 1.91327 -2.2224e-21)
(-0.0149274 1.92842 0)
(0.0374305 3.18203 4.75306e-20)
(0.392031 3.49128 0)
(1.13599 0.634502 2.60417e-20)
(1.01337 0.013513 -7.52073e-22)
(1.02077 -0.011022 0)
(1.00175 6.30993e-05 3.01361e-23)
(0.120669 1.35118 0)
(0.147804 2.5658 0)
(-0.0984017 1.0206 0)
(-0.0866374 2.68569 -1.1761e-19)
(-0.239457 2.57816 -8.90526e-20)
(1.0091 0.023406 1.15573e-21)
(1.05557 -0.00550029 0)
(1.07794 0.0279296 0)
(-0.0874788 1.83524 0)
(-0.0295621 2.0601 0)
(-0.159118 1.58417 0)
(0.295422 1.46231 -1.76871e-19)
(1.01119 -0.00990926 0)
(1.00934 -0.0155192 0)
(1.00254 0.000559351 1.0287e-19)
(1.00538 -0.00485044 -1.22421e-19)
(1.00124 -0.0010889 0)
(-0.114688 1.80295 0)
(-0.0866317 1.7458 0)
(-0.0873014 1.7836 0)
(-0.137922 1.59489 0)
(-0.084189 1.67423 0)
(-0.0992315 1.65305 0)
(1.03414 -0.0078802 0)
(1.02152 0.0157876 -4.8722e-22)
(0.787831 1.24731 2.04385e-19)
(1.00215 0.000410393 -1.02553e-19)
(1.00406 0.00534877 1.23217e-19)
(1.00118 0.00211222 0)
(1.01344 0.0104555 9.99175e-20)
(1.0085 0.00858836 -1.24157e-19)
(1.00938 0.0155352 0)
(-0.0248355 2.04882 0)
(-0.0246511 1.97758 -1.48746e-20)
(-0.0134668 1.99223 1.2723e-20)
(1.19434 0.251615 -2.62572e-20)
(1.13161 0.0832449 0)
(0.05035 3.0761 -2.15627e-19)
(0.0675014 2.84975 -1.69996e-20)
(0.148554 3.19575 3.51126e-19)
(0.14354 3.22562 9.28697e-22)
(0.136288 3.23999 0)
(0.0197127 3.13785 4.75147e-20)
(0.0794319 3.1616 2.07369e-19)
(0.0711881 3.18787 -9.29146e-20)
(0.0243459 3.12882 0)
(0.66568 0.319956 0)
(0.583072 0.368535 0)
(1.09096 0.657692 -1.00791e-19)
(1.11846 0.795472 1.56025e-19)
(1.15404 0.54473 0)
(1.20354 0.49597 0)
(1.01643 0.013467 -1.87135e-19)
(1.01513 0.0146429 2.33503e-19)
(1.02495 -0.0105916 0)
(1.02282 -0.0128954 0)
(1.00666 0.00231997 0)
(1.01038 0.00341041 0)
(1.00447 0.00163515 0)
(1.00981 0.0061332 0)
(1.00813 0.00621255 0)
(1.00437 0.00412564 0)
(0.109428 1.34553 0)
(0.108283 1.2879 0)
(0.124308 1.38317 0)
(0.149312 1.3981 0)
(0.146134 2.58661 0)
(0.191762 2.63985 -8.9229e-20)
(0.10657 2.64342 0)
(0.0839495 2.64529 -4.58689e-21)
(0.0341585 2.66447 8.82813e-20)
(-0.104389 1.01829 0)
(-0.149849 0.983465 0)
(0.0162387 1.02789 0)
(0.0440652 0.934699 0)
(-0.00472064 2.27477 1.80519e-19)
(-0.228775 2.63644 -1.49356e-19)
(-0.155013 2.7122 -1.70966e-19)
(-0.189934 2.67712 0)
(-0.232904 2.57756 2.20985e-19)
(-0.211747 2.50011 1.59922e-19)
(-0.00992295 2.31597 -1.2624e-19)
(-0.218872 2.59759 1.96612e-19)
(-0.181335 2.58838 2.12902e-19)
(1.01789 0.0335087 1.82731e-19)
(1.01101 0.0215492 -2.26336e-19)
(1.00976 0.0318871 -1.88884e-19)
(0.991604 0.0132354 2.43092e-19)
(1.05589 -0.000418663 0)
(1.04286 -0.0162309 0)
(1.07608 0.032664 0)
(1.06082 0.00767243 0)
(1.05793 0.00159157 0)
(1.11252 0.0825877 0)
(1.08835 0.0482815 0)
(1.09197 0.0396991 0)
(-0.0742526 1.90657 -1.27309e-22)
(-0.10881 1.87672 0)
(-0.0811013 1.88 0)
(-0.0595879 2.1422 -1.50803e-20)
(-0.044154 2.1694 1.53148e-21)
(-0.211015 1.84105 -9.71149e-22)
(-0.144427 1.7975 9.78459e-22)
(-0.194101 1.67483 0)
(-0.146363 1.72681 0)
(-0.128131 1.73594 0)
(-0.206141 1.51302 0)
(-0.132587 1.40539 0)
(0.374366 1.47642 3.36972e-19)
(0.419171 1.48818 1.33682e-19)
(0.582011 2.42589 -6.37665e-20)
(0.414174 2.52013 1.75819e-19)
(0.3499 2.09038 -2.04541e-20)
(1.02108 -0.00881365 0)
(1.01541 -0.0101264 0)
(1.01474 -0.0160175 0)
(1.00778 -0.00151927 0)
(1.00487 -0.001335 0)
(1.00766 -0.00476796 0)
(1.00912 -0.0037663 0)
(1.01392 -0.00452265 0)
(1.02262 0.0158244 1.78528e-19)
(1.01807 0.0166701 -2.28091e-19)
(1.02398 0.0178994 -1.7712e-19)
(1.02071 0.0181459 2.22443e-19)
(0.758304 1.30034 0)
(0.696728 1.35378 2.47584e-19)
(0.857043 1.20438 1.44317e-19)
(0.919102 1.14537 -1.91936e-19)
(1.15309 2.61173 -2.34253e-19)
(0.838275 0.103124 1.1832e-19)
(1.12639 0.108143 0)
(1.18014 0.186999 2.45747e-20)
(1.16807 0.150564 1.02856e-21)
(0.987559 0.124408 0)
(0.165717 2.96084 4.21041e-20)
(0.123324 2.86785 -2.9967e-19)
(0.0358242 2.37107 1.97182e-19)
(0.100459 0.0818452 -7.7568e-20)
(0.33981 3.43136 -1.80653e-19)
(0.198644 3.32407 0)
(0.23147 3.36358 2.35104e-19)
(0.261577 3.04245 -2.87363e-19)
(0.365548 3.20454 0)
(0.00685876 3.12024 1.11269e-20)
(0.0180612 3.12889 -1.43586e-19)
(0.0159112 3.12477 2.10583e-19)
(0.0366737 3.13979 0)
(0.0346779 3.15108 0)
(1.19239 2.65431 0)
(0.543078 0.850293 -9.57939e-20)
(1.04603 0.968827 -7.96086e-20)
(0.951015 1.05595 0)
(0.796024 0.935334 2.02718e-20)
(1.03392 0.866084 1.1106e-20)
(0.377846 0.435277 -2.18898e-19)
(0.700356 0.339158 -9.42381e-21)
(0.688183 0.26619 9.15165e-20)
(0.591453 0.411876 7.1522e-21)
(0.527922 0.369812 -2.93702e-19)
(0.670387 0.361142 0)
(0.700297 0.427214 1.4929e-19)
(0.704533 0.423775 0)
(0.623835 0.398726 0)
(0.61615 0.318175 0)
(0.777188 0.597018 5.37539e-20)
(1.18259 0.274133 1.06808e-20)
(1.19267 0.406007 0)
(1.21384 0.350909 0)
(0.768447 0.20242 1.35512e-19)
(0.825632 0.540002 -7.53195e-20)
(0.735405 0.510109 1.22778e-19)
(0.92026 0.415869 -1.15065e-19)
(1.02024 0.0147074 1.22692e-19)
(1.01833 0.0142045 -1.2523e-19)
(1.01589 0.0162448 0)
(1.03501 -0.00674894 0)
(1.02918 -0.00931504 -1.12494e-19)
(1.02707 -0.013783 1.11508e-19)
(1.02538 0.00896936 0)
(1.02453 0.0118443 0)
(1.01123 0.00376321 0)
(1.01436 0.00868214 0)
(1.01493 0.00332989 0)
(1.01393 0.00260886 0)
(0.114668 1.30153 0)
(0.111924 1.15056 0)
(0.139637 1.35381 1.3168e-19)
(0.273949 1.45859 1.02099e-19)
(0.171245 1.42951 2.23428e-19)
(0.202646 1.43792 -3.60906e-19)
(0.170285 1.37049 0)
(0.118533 1.59143 1.11915e-19)
(0.0717341 1.55535 0)
(0.350998 2.0396 2.95586e-20)
(0.356742 2.37675 8.97064e-20)
(0.172064 1.45305 -9.79059e-20)
(0.265726 1.35586 7.64912e-20)
(0.1931 1.35523 -6.12999e-20)
(0.266199 1.30341 1.26042e-19)
(0.243497 1.58401 0)
(0.252897 1.61887 -7.98242e-20)
(0.0523025 2.30174 4.14889e-20)
(0.0372192 2.66858 0)
(0.0569337 2.39971 -6.78388e-20)
(0.0390907 2.42558 0)
(0.0754333 2.654 4.56134e-21)
(0.0530394 2.6912 0)
(-0.0141288 1.47142 2.18266e-19)
(0.16697 1.65416 0)
(0.155957 1.33492 0)
(0.0278657 1.2631 -2.45611e-19)
(-0.0783978 2.70288 -1.25302e-20)
(0.0175753 2.70066 -1.24111e-19)
(-0.0528741 2.72962 -8.25511e-22)
(-0.39802 2.22271 -1.06923e-19)
(-0.200269 2.12216 -8.63667e-20)
(-0.154801 1.07841 0)
(-0.121664 1.07159 0)
(0.171015 1.75488 -2.28666e-19)
(0.20402 1.51209 -2.42533e-19)
(0.166734 1.69556 3.06539e-19)
(0.153822 1.73973 0)
(-0.206511 2.0316 4.86326e-20)
(-0.16925 2.14665 -2.18267e-20)
(-0.211806 2.22003 9.32991e-21)
(-0.404113 2.10986 1.29135e-19)
(-0.272834 2.3934 3.13494e-20)
(-0.274489 2.4628 -1.67245e-19)
(1.02278 0.0229898 -1.19912e-19)
(1.01988 0.028473 1.20709e-19)
(1.01617 0.0221014 0)
(1.01377 0.0503885 1.73546e-19)
(0.995821 0.0388478 -2.03227e-19)
(0.961968 0.0181107 2.36282e-19)
(1.01205 0.0833992 -2.25255e-20)
(1.04069 -0.00706705 0)
(1.04641 -0.00629486 1.01129e-19)
(1.0363 -0.0128258 -1.0068e-19)
(1.06391 0.038333 -5.51459e-21)
(1.0582 0.0164291 4.93441e-20)
(1.06254 0.0467304 0)
(1.05736 0.0402038 -1.82922e-20)
(1.04024 0.0311157 0)
(1.03595 0.0299684 0)
(1.02674 0.0121731 0)
(1.02498 0.0151384 0)
(1.04669 0.0262007 3.82014e-20)
(1.04321 0.0181438 -8.66924e-20)
(1.05373 0.0211495 -3.87844e-20)
(1.05255 0.023294 -4.48129e-20)
(1.06453 0.0566162 8.0475e-20)
(1.07884 0.0520685 0)
(1.08799 0.0932988 0)
(-0.192189 2.00863 1.96753e-20)
(-0.132601 1.88972 1.11349e-22)
(-0.152096 1.92524 0)
(-0.101768 2.00887 -1.99005e-20)
(-0.0712219 1.93048 1.17809e-23)
(-0.0861963 1.9622 2.16002e-21)
(-0.185221 2.46698 -1.56744e-19)
(-0.205384 2.29323 4.56318e-21)
(-0.264322 2.36879 -2.8318e-20)
(-0.106944 2.30576 5.8311e-20)
(-0.121852 2.32578 -6.72534e-20)
(-0.28287 1.75765 -6.36127e-22)
(-0.255847 1.85742 -8.78223e-21)
(0.360331 1.39802 -1.65941e-19)
(0.35735 1.35507 -1.58278e-19)
(0.643165 1.40602 -2.39178e-19)
(0.513149 1.47298 -1.29045e-19)
(0.571554 1.44464 0)
(0.577692 2.39918 5.3492e-20)
(0.645985 2.38947 9.49026e-20)
(0.410856 2.49664 3.49187e-20)
(0.411215 2.55194 -6.22698e-20)
(0.523061 2.51476 1.08174e-19)
(0.534759 2.43871 0)
(0.48674 2.48371 -1.48428e-19)
(0.238381 2.56939 2.5152e-19)
(0.351342 2.55082 -3.17447e-20)
(0.284786 2.62777 -3.73602e-19)
(0.909568 2.37733 1.03808e-19)
(0.812985 2.37014 0)
(1.01038 -4.71436e-05 4.04251e-21)
(1.01473 -0.0056286 -3.35179e-21)
(1.0176 -0.0036573 -5.98026e-20)
(1.01481 -0.000662331 6.04063e-20)
(1.01205 0.000921809 0)
(0.620919 1.2631 0)
(0.62563 1.15232 0)
(0.721142 1.0612 0)
(0.627367 1.10638 0)
(1.18179 2.62343 2.67838e-20)
(1.06696 2.36408 0)
(0.85744 2.22346 -6.38575e-22)
(0.820728 2.48197 0)
(0.917608 2.56528 1.168e-20)
(0.95654 2.51978 -7.60087e-21)
(0.841751 0.148017 0)
(0.816782 0.136032 3.3834e-20)
(0.926137 0.123913 1.755e-19)
(0.861314 0.116126 -6.9879e-20)
(0.84986 0.0626305 -2.11163e-19)
(1.03828 0.217128 -1.0592e-19)
(0.961275 0.2801 -6.23665e-21)
(0.90196 0.267027 1.59869e-19)
(0.976409 0.200767 1.19057e-19)
(0.93807 0.15814 -2.21134e-19)
(0.914295 0.167635 2.84665e-20)
(0.938593 0.225755 -5.58044e-20)
(0.917927 0.191142 0)
(0.974113 0.157409 1.06009e-19)
(1.02093 0.165752 0)
(1.01332 0.195679 0)
(1.0753 0.111635 3.45102e-20)
(1.04977 0.158922 -5.45334e-21)
(1.03522 0.219308 -1.80031e-20)
(1.07345 0.192455 0)
(1.02821 0.0320692 9.1463e-20)
(1.04864 0.0473635 1.07299e-19)
(1.04306 0.032983 -8.99983e-20)
(1.04599 0.0530287 -7.23969e-20)
(1.02349 0.0557579 -1.22396e-19)
(0.977353 0.124457 0)
(0.996186 0.0788323 0)
(0.971252 0.0425711 -8.5236e-20)
(0.931403 0.0571958 3.51752e-20)
(1.03156 0.0832043 1.02671e-19)
(1.04981 0.109759 -1.04325e-19)
(1.0572 0.13427 9.3531e-20)
(1.01752 0.128457 0)
(1.05825 0.0988548 0)
(1.04813 0.0781365 -4.34805e-20)
(1.04323 0.0819467 -8.21916e-20)
(0.579159 1.09324 -3.6386e-20)
(0.625684 1.41955 7.22737e-20)
(1.16044 2.75535 4.19252e-20)
(1.23809 3.08552 -3.36864e-20)
(1.24774 2.72261 2.63384e-19)
(1.27982 2.72159 -1.60835e-19)
(1.16579 2.36239 8.58263e-21)
(1.2258 2.98041 8.20106e-20)
(1.24574 2.95 -8.78589e-20)
(1.24405 3.24281 -1.40256e-19)
(1.36816 2.98206 1.63574e-19)
(1.30924 2.90546 0)
(0.536137 0.856775 -5.55613e-21)
(0.135408 1.27141 1.65971e-19)
(0.54366 0.505575 1.462e-19)
(0.357817 0.265624 1.54378e-19)
(0.541727 0.4134 1.65658e-19)
(0.562309 0.476648 -2.6189e-19)
(0.556946 0.499745 2.15305e-19)
(0.507229 0.439634 -8.67171e-20)
(0.441164 0.366905 1.97189e-19)
(0.774247 0.253367 -7.57101e-20)
(0.729498 0.291508 0)
(0.72505 0.229641 4.09054e-21)
(0.72105 0.515326 7.63445e-20)
(0.692771 0.481878 -2.83168e-19)
(0.610869 0.483355 6.26113e-21)
(0.627438 0.468068 0)
(0.657949 0.72268 6.37416e-20)
(0.811652 0.75905 2.05624e-20)
(0.727076 0.837148 -2.75234e-20)
(0.847411 0.789265 -6.36067e-21)
(0.872133 0.819968 5.48476e-21)
(0.879486 0.822126 -5.63464e-21)
(0.822749 0.628276 -9.21978e-20)
(0.891412 0.692825 5.92872e-21)
(0.942455 0.698856 0)
(0.923866 0.669115 -8.19628e-21)
(0.988077 0.302091 2.55421e-20)
(1.0831 0.280014 6.22616e-21)
(1.02146 0.253997 4.26688e-20)
(0.972506 0.346316 -5.91537e-20)
(1.01553 0.404163 0)
(1.05782 0.394134 0)
(0.892951 0.34637 2.49334e-21)
(0.835789 0.285514 0)
(0.855763 0.278985 8.14499e-20)
(0.891447 0.274898 -3.6119e-21)
(0.909054 0.417841 3.15463e-19)
(0.871452 0.482544 8.03782e-20)
(0.870451 0.446894 -1.03946e-19)
(0.799569 0.436184 1.11523e-19)
(0.78644 0.439096 7.57112e-20)
(0.751991 0.421523 -7.36792e-20)
(1.02672 -0.00105836 9.59161e-20)
(1.01981 -0.000264365 0)
(1.01843 0.000734353 6.44664e-20)
(1.02203 -0.00205878 -1.44539e-19)
(1.02209 0.00387766 7.03062e-20)
(1.02073 0.0105811 -1.48222e-19)
(1.02174 0.010183 0)
(1.02116 0.0104807 -3.10309e-20)
(1.0159 0.00764134 7.7674e-20)
(1.01685 0.0101739 -3.95259e-20)
(1.01782 0.00929507 2.90683e-20)
(0.0837135 1.0647 0)
(0.194155 1.23312 0)
(0.107298 1.15201 0)
(0.0916815 1.00842 0)
(0.127174 1.37608 -2.76712e-19)
(0.115186 1.34676 8.79621e-20)
(0.129193 1.47357 6.04169e-20)
(0.09143 1.38554 -7.15637e-20)
(0.198028 1.52532 2.06407e-19)
(0.197681 1.49209 -1.55795e-19)
(0.172693 1.36062 -1.21381e-20)
(0.222132 1.35061 1.91453e-19)
(0.211935 1.27258 2.90867e-20)
(0.22645 1.275 2.67777e-20)
(0.0895325 2.37056 7.45662e-20)
(0.085294 2.42922 0)
(0.151639 2.08992 -1.9659e-20)
(0.0765436 1.71389 -4.78318e-20)
(0.240126 2.06719 1.16874e-20)
(0.219326 2.45764 0)
(0.275446 2.412 -4.50256e-20)
(0.308659 2.41288 3.19094e-20)
(0.238945 2.01655 3.23819e-20)
(0.14783 2.19633 3.57592e-21)
(0.149602 2.32518 0)
(0.127197 2.02413 2.186e-19)
(-0.0271474 2.53558 2.54404e-19)
(0.0398108 2.3608 0)
(0.0275215 2.51609 -1.05664e-20)
(0.0218563 2.36043 -9.79245e-20)
(-0.174807 1.2815 -3.40654e-20)
(-0.232886 1.27743 5.15071e-19)
(-0.264471 1.35161 -1.11535e-19)
(-0.239721 1.45588 -2.13038e-19)
(-0.0477634 1.44892 0)
(-0.304924 1.29356 0)
(-0.219564 1.34864 -5.92832e-20)
(-0.321228 1.37529 1.91033e-20)
(-0.307742 1.30367 0)
(-0.214234 1.1856 -5.57783e-20)
(-0.154281 1.24008 9.89511e-20)
(1.04105 0.00515697 0)
(1.04332 0.00197736 -9.39784e-21)
(1.04217 0.0143134 -6.90118e-20)
(1.05029 0.00982784 0)
(1.04984 0.0081784 0)
(1.03652 0.00648685 -2.58722e-21)
(1.03231 0.00792739 1.14137e-19)
(1.03218 0.0131114 1.39242e-19)
(1.027 0.0190572 0)
(1.02595 0.0202838 0)
(1.03835 0.0212171 6.9723e-20)
(1.03151 0.0245258 0)
(1.02918 0.0237971 0)
(-0.384717 2.06875 0)
(-0.312806 1.87859 -6.20996e-21)
(-0.325299 2.01463 -1.26639e-20)
(-0.323809 1.49542 0)
(-0.392862 1.81929 -3.06959e-20)
(-0.327753 1.71228 1.67664e-21)
(-0.313925 1.57476 0)
(0.374505 1.70075 0)
(0.359417 1.28051 2.56995e-19)
(0.305305 1.34042 0)
(0.409636 1.26908 -3.3648e-19)
(0.455757 1.43564 0)
(0.432377 1.38886 1.5816e-19)
(1.02105 2.70048 -1.93748e-21)
(0.942311 2.41453 -1.27391e-19)
(0.873252 2.16516 1.63792e-19)
(0.836393 2.36486 5.59194e-20)
(0.835825 2.52578 0)
(0.89828 2.5153 0)
(0.870219 2.38062 0)
(0.905858 2.33209 -1.95401e-19)
(0.683451 2.49599 -8.51551e-21)
(0.79759 2.49398 -5.34277e-21)
(0.805556 2.46176 4.23469e-21)
(0.677352 2.3702 0)
(0.779735 2.37049 0)
(0.738898 2.3772 -9.46556e-20)
(0.758136 2.51187 0)
(0.590367 1.09476 0)
(0.483497 0.937591 1.11623e-24)
(0.551751 0.95651 -9.12795e-22)
(0.51834 1.06259 0)
(0.52293 1.02242 7.94717e-22)
(0.748671 0.862257 5.38366e-21)
(0.757591 0.992655 0)
(0.73135 0.936521 -2.36145e-20)
(0.605177 1.02847 0)
(0.620674 0.933629 0)
(1.16209 2.76822 1.94303e-20)
(1.1391 2.83424 4.77022e-20)
(0.941275 2.35665 -1.09585e-19)
(0.901931 2.33168 1.13105e-20)
(1.12366 2.73596 0)
(1.07364 2.70512 -1.39693e-20)
(1.07986 2.48455 -3.79559e-20)
(0.975255 2.22899 -1.34679e-20)
(0.492736 1.37273 0)
(0.495776 1.07276 3.18774e-20)
(0.539041 1.13218 0)
(0.859337 0.216961 0)
(0.820781 0.174095 0)
(0.77757 0.159074 0)
(0.849871 0.226447 -1.28731e-19)
(0.791549 0.224492 8.01341e-20)
(0.939393 0.0496773 -7.29692e-20)
(0.952023 0.0984556 0)
(0.924766 0.10416 3.2593e-20)
(0.886793 0.0837119 1.33959e-19)
(0.877061 0.0440116 -8.25148e-20)
(1.17728 3.37861 -4.18805e-19)
(1.22863 3.29565 0)
(1.14398 3.39633 -7.93381e-19)
(0.643357 3.55403 6.99542e-19)
(0.857222 3.11439 1.44361e-19)
(0.506909 0.885475 9.70188e-20)
(0.423787 0.876496 0)
(0.34729 0.548279 -3.4254e-20)
(0.457189 0.689623 1.5678e-19)
(0.545922 0.511203 -4.54585e-20)
(0.526318 0.539051 5.27878e-20)
(0.656279 0.52855 1.10115e-19)
(0.684633 0.542122 0)
(0.649577 0.613411 0)
(0.600188 0.546181 0)
(0.934447 0.581916 -1.86964e-20)
(0.875872 0.5263 -7.71013e-20)
(0.897573 0.559011 3.86763e-20)
(0.925744 0.497933 -5.74177e-20)
(1.03374 0.462357 0)
(1.0257 0.544709 -3.44433e-21)
(0.824274 0.39074 -1.66883e-19)
(0.829512 0.373985 -1.88528e-19)
(0.779443 0.386161 1.30358e-19)
(0.774867 0.360725 -1.45669e-19)
(0.830479 0.311055 -1.08752e-19)
(0.781005 0.311343 1.33973e-19)
(1.02611 0.00518549 -7.37124e-20)
(1.02599 0.00596123 1.52497e-19)
(1.03009 -0.00127553 9.08499e-20)
(1.03267 0.0007442 -1.104e-19)
(1.03359 0.00458904 0)
(1.03038 0.00578342 -1.79649e-19)
(0.102508 1.69988 -2.5982e-20)
(0.11559 1.63876 0)
(0.09283 1.71092 -1.98855e-19)
(0.0841094 1.68611 1.81572e-19)
(0.115636 1.52526 -1.11878e-19)
(0.17763 1.54143 0)
(-0.491584 2.08117 0)
(-0.456295 1.71707 2.74354e-20)
(-0.465701 1.68963 -2.47069e-20)
(-0.402642 1.85052 -1.0524e-20)
(-0.393148 2.09716 3.61754e-20)
(-0.434347 2.1227 -2.61002e-20)
(0.487109 1.38282 1.74481e-19)
(0.47989 1.39073 -1.84377e-19)
(0.428603 1.26875 1.71762e-19)
(0.417271 1.29283 -1.04981e-20)
(0.608799 1.27586 0)
(0.529053 1.36974 2.16016e-19)
(0.547421 1.38577 -2.09567e-19)
(0.438542 1.25415 -1.66585e-19)
(0.489029 1.21235 0)
(0.537472 1.17309 0)
(0.644202 2.45255 1.27775e-20)
(0.667625 2.47897 2.14083e-19)
(0.706529 2.49514 -1.46489e-19)
(0.614345 2.48334 -4.78845e-20)
(0.560565 2.57714 4.31528e-20)
(0.526373 2.55507 -1.23749e-19)
(0.959034 2.36902 -8.82258e-20)
(1.00491 2.38927 0)
(0.895801 2.14529 -1.22628e-19)
(1.04238 2.68727 0)
(1.04405 2.6738 0)
(0.61809 2.27046 7.56232e-20)
(1.03125 3.16553 1.89253e-19)
(0.899385 3.02655 -1.4084e-19)
(0.298171 0.956773 0)
(0.350736 0.812662 -6.57176e-20)
(0.483841 0.775803 -2.93692e-20)
(0.420556 2.00127 0)
(0.482947 2.79079 -1.02189e-19)
(0.442882 2.57555 0)
(0.672376 0.656243 -1.31041e-19)
(0.746423 0.663336 1.62377e-19)
(0.776252 0.608735 -1.57074e-19)
(0.669784 0.628522 -1.93301e-20)
(0.714585 0.585467 -7.78188e-20)
(1.01598 2.77593 -1.4292e-19)
(1.0438 2.84245 1.32445e-19)
(0.668612 2.17241 4.42608e-20)
(0.593247 1.73751 -4.03094e-20)
(0.712074 1.92931 4.41325e-20)
(0.995348 2.48227 -2.5319e-20)
(0.996358 2.47568 -8.19446e-20)
(0.681778 1.90101 -3.43787e-21)
(0.463307 1.36006 -2.82802e-20)
)
;

boundaryField
{
    wall-4
    {
        type            noSlip;
    }
    velocity-inlet-5
    {
        type            fixedValue;
        value           uniform (1 0 0);
    }
    velocity-inlet-6
    {
        type            fixedValue;
        value           uniform (0 3 0);
    }
    pressure-outlet-7
    {
        type            zeroGradient;
    }
    wall-8
    {
        type            noSlip;
    }
    frontAndBackPlanes
    {
        type            empty;
    }
}


// ************************************************************************* //
