/*--------------------------------*- C++ -*----------------------------------*\
| =========                 |                                                 |
| \\      /  F ield         | OpenFOAM: The Open Source CFD Toolbox           |
|  \\    /   O peration     | Version:  4.0                                   |
|   \\  /    A nd           | Web:      www.OpenFOAM.org                      |
|    \\/     M anipulation  |                                                 |
\*---------------------------------------------------------------------------*/
FoamFile
{
    version     2.0;
    format      ascii;
    class       volScalarField;
    location    "19";
    object      p;
}
// * * * * * * * * * * * * * * * * * * * * * * * * * * * * * * * * * * * * * //

dimensions      [0 2 -2 0 0 0 0];

internalField   nonuniform List<scalar> 
918
(
0.244248
0.923339
0.0112376
0.243105
-0.00143649
0.89102
-0.825315
0.423168
0.224016
-0.440934
-0.0272474
0.212807
0.751891
0.519287
-1.43688
0.00776933
0.375979
-0.70764
0.223011
-0.00240554
0.500678
0.230569
0.233576
0.224015
0.285762
0.511187
0.632315
0.00608861
-0.00136214
-0.00357445
0.00474051
-0.00783877
-0.000480409
0.774354
0.824999
0.847557
0.193415
0.0361137
-0.657705
-0.748075
-0.733577
-0.877174
0.412212
0.416901
-0.474772
0.42809
0.443723
0.211991
0.223271
0.224117
0.22551
0.224405
0.225866
0.193113
-0.459635
-0.476089
-0.409372
-0.378045
-0.0200588
-0.0517039
-0.0844916
-0.00812018
-0.00411195
0.150332
0.209313
0.207933
0.218543
0.228726
0.862143
0.833124
0.858783
0.775829
0.790604
0.729564
0.70143
0.539062
0.560184
0.506266
0.493253
-1.86723
-2.8375
-0.843175
-0.586574
0.000389571
0.0108479
0.0141479
0.362557
0.372084
0.374314
0.388633
0.78273
-0.688045
-0.841942
0.222885
0.221807
0.230042
0.230376
0.227516
0.225621
0.00848056
0.0145435
-0.013884
-0.00350389
-0.00625564
0.482938
0.477338
0.225587
0.222287
0.234945
0.25644
0.246291
-0.00643113
0.294466
0.315892
0.3141
0.490167
0.489941
0.496141
0.60677
0.570359
0.669622
0.693047
0.0140301
0.00402144
0.0031087
0.00300964
0.00338383
0.189362
0.181396
0.206237
0.197173
0.199258
-0.0458039
-0.178499
0.12667
0.152858
-0.564143
-0.644595
-0.748033
-0.772172
-0.89644
0.26227
0.39993
0.402856
-0.482592
-0.410161
-0.555501
-0.324801
-0.40141
0.20276
0.209536
0.204077
0.219105
0.213959
0.215574
0.227437
0.224518
0.226069
0.229494
0.302617
0.140659
0.0729078
-0.580315
-0.484448
-0.565936
-0.350939
-0.295339
-0.0435736
-0.0519299
-0.0414594
-0.00367925
-0.241154
-0.125479
-0.179807
0.00555522
0.0065532
0.143794
0.135524
0.159474
0.165991
0.201349
0.202088
0.205358
0.203653
0.651495
0.674126
0.682557
0.655897
-3.86675
-6.94537
-0.253739
-0.110433
0.00305984
0.00291729
0.00206037
0.00445495
0.00290755
0.00104898
0.0107434
0.0123822
0.0146907
0.016871
0.346702
0.35335
0.700657
0.689275
0.668242
0.637673
0.21074
0.21286
0.218552
0.213943
0.0133511
0.0163886
0.014204
0.443973
0.463987
0.461318
-0.0408637
-0.128668
0.0413772
0.0679775
0.334544
0.320246
0.337667
0.378513
0.415496
0.699588
0.717533
0.717815
0.725865
0.7708
0.783632
0.749497
0.170734
0.17819
0.174269
0.209736
0.207587
0.208199
0.201791
0.204821
0.200643
-0.351326
-0.714174
0.241045
0.24606
0.200904
0.213003
0.335938
0.398033
0.380974
0.391318
0.395826
-0.257912
-0.329664
0.014548
-0.0105316
0.0930397
0.124235
0.10772
0.622762
0.584128
0.634096
0.607208
0.567469
0.593676
-0.754659
-2.01396
-1.26087
0.254525
0.0599787
0.151053
0.00731845
-1.31394e-05
0.00590871
0.656629
0.740232
0.350196
0.547656
0.585103
0.454232
0.485495
0.544691
0.468552
0.503345
0.537567
0.516488
0.237319
0.243106
0.212987
0.462986
0.519258
-0.146893
-0.191392
-0.26021
-0.085471
-0.0410167
-0.0662013
0.70129
0.585072
0.665656
0.221884
0.222465
0.0122187
0.0225868
0.226349
0.22643
0.00632464
0.00601088
0.131554
-1.13894
-0.163109
0.214218
0.205441
0.221886
-0.46991
0.0573862
-0.0634183
0.0879857
0.0807402
0.212497
0.16022
0.127334
0.00607178
0.0155476
-0.00142208
-0.525999
0.219464
0.217657
0.221511
0.222597
0.223248
0.00696586
0.00823257
0.00625747
0.00081842
0.00351132
-0.000603967
0.187544
0.201817
-0.477127
0.221383
0.223695
0.223386
0.216081
0.221885
0.219853
0.0127572
0.00716522
0.00591927
-0.0502906
0.0636005
0.388842
0.504281
0.345317
0.112056
-0.136643
0.283194
0.352287
0.250033
0.415945
0.384276
0.413932
-0.100443
-0.255408
-0.0935434
-0.152882
0.212213
0.210672
0.203963
0.201055
0.216957
0.215251
0.219305
0.216402
0.219165
0.220759
-0.484673
-0.38463
-0.446264
-0.468993
0.0168736
0.302629
-0.110683
0.0300942
-0.0985004
-0.0354547
-0.0167837
-0.107999
-0.12474
-0.078037
0.0545944
0.0665314
0.000825366
0.0665236
0.0149707
-0.073395
0.0205234
-0.033468
0.206855
0.203339
0.21169
0.218697
0.167966
0.16954
0.142101
0.158265
0.147194
0.0919552
0.124728
0.103876
0.00686881
0.00728127
0.00590939
0.0194216
0.018778
0.00824867
0.00843607
0.0152532
0.00880189
0.00697989
0.00224927
0.0102492
-0.485385
-0.598734
0.661816
0.642914
-0.120249
0.208586
0.215095
0.2118
0.216433
0.219601
0.220478
0.218358
0.214671
0.20267
0.204843
0.200705
0.199957
-0.413003
-0.555979
-0.378697
-0.43294
-0.176693
0.326513
0.0749755
0.00585394
0.00717878
0.219807
0.631131
0.414179
0.443013
0.483879
-0.667684
-0.272331
-0.596556
-0.00514844
-0.189538
0.386634
0.439245
0.462558
0.40696
0.356372
-0.557072
0.209692
-0.344499
-0.304557
-0.109827
-0.208914
0.440999
0.368769
0.376642
0.403206
0.427962
0.37409
0.355336
0.352252
0.392001
0.395651
0.192048
-0.0161886
-0.0722642
-0.101332
0.359477
0.231383
0.284511
0.205273
0.206513
0.209943
0.208158
0.191759
0.199195
0.195096
0.199374
0.20267
0.212782
0.212482
0.208055
0.210408
-0.373311
-0.371446
-0.416457
-0.453172
-0.468789
-0.523926
-0.404405
-0.365891
-0.498216
-0.00737034
0.0268752
-0.309412
-0.385255
-0.358869
-0.360508
-0.145169
-0.0534305
-0.408985
-0.0680326
-0.241227
-0.288416
-0.0442554
-0.0224543
-0.0858114
-0.136766
-0.217366
-0.122844
0.010221
-0.13972
-0.108325
0.0139878
0.0040571
-0.0093095
0.0032526
-0.277324
-0.272052
-0.231828
-0.398671
0.0146281
0.0174455
0.0190999
0.0198571
0.0274156
0.0248614
0.199816
0.200481
0.199399
0.215063
0.226164
0.241262
0.209399
0.186694
0.178645
0.180301
0.157259
0.165363
0.162689
0.173626
0.190978
0.198946
0.19769
0.200762
0.184622
0.186106
0.175553
0.17868
0.159599
0.141643
0.131578
0.0110139
0.00792143
0.00939644
0.00910976
0.00870751
0.00913978
0.03115
0.0244853
0.0287856
0.0232447
0.0171523
0.0152819
0.0120378
-0.393622
-0.325024
-0.502588
-0.538124
-0.609564
0.576931
0.685852
0.520054
0.298493
0.315415
0.507931
0.62873
0.284477
0.461373
0.50883
0.226124
0.477383
0.21305
0.212611
0.210467
0.209722
0.210853
-0.313595
-0.209495
-0.207318
-0.148236
-0.0334558
0.0882659
-0.00597541
-0.153476
-0.00530652
0.00275407
0.319766
0.335232
0.279914
0.306822
0.305901
0.135627
0.207346
0.263173
0.221526
0.257812
0.278332
0.247992
0.271232
0.221009
0.18037
0.182049
0.130887
0.141756
0.120587
0.105875
0.20211
0.182044
0.190897
0.184227
0.203859
0.231756
0.224976
0.24918
0.262796
0.191647
0.154721
0.160605
0.188756
0.153409
0.165299
0.178639
-0.0972728
-0.16496
-0.133627
-0.421036
-0.322997
-0.397884
-0.431131
-0.322754
-0.0281553
-0.782173
-0.828209
-1.3912
0.150839
0.685771
0.397535
0.33551
0.426106
0.39826
0.396977
0.443396
0.445729
0.347207
0.362991
0.366838
0.317657
0.343097
0.377359
0.373302
0.201046
0.0716797
0.0589951
0.0311709
-0.0823936
-0.0503958
0.147481
0.0639631
-0.00343517
0.0133198
0.171838
0.073625
0.133373
0.159422
0.0825589
0.0575315
0.243356
0.316223
0.305064
0.278308
0.196796
0.208316
0.235968
0.270275
0.29545
0.332221
0.200937
0.205612
0.206763
0.204885
0.201776
0.204285
0.204222
0.206699
0.207832
0.210552
0.209624
-0.192245
-0.244889
-0.330793
-0.249843
-0.605617
-0.620522
-0.523968
-0.48099
-0.356719
-0.439733
-0.52811
-0.434103
-0.35999
-0.32756
-0.336938
-0.323322
-0.291359
-0.372524
-0.0599865
0.0798241
0.174352
0.0606648
-0.0878304
-0.0851063
-0.0686144
-0.240614
-0.093408
-0.0853676
-0.171419
-0.266083
-0.0129562
-0.0170114
-0.0232321
-0.0109174
-0.0379145
-0.0142255
0.010433
0.00669717
0.00423121
0.00737005
0.0114863
0.190598
0.183672
0.181628
0.178692
0.178503
0.18629
0.190936
0.19394
0.199311
0.199973
0.191954
0.196163
0.198899
0.0203764
0.0161703
0.0199881
0.00770183
0.0114235
0.0143015
0.00973256
-0.212653
-0.237341
-0.237457
-0.304
-0.43652
-0.380649
0.169058
0.137027
0.200176
0.360404
0.228681
0.1528
0.22764
0.320649
-0.063913
0.140183
-0.0379577
0.563443
0.433557
0.579971
0.204597
-0.0918008
0.0518634
0.119246
-0.0977201
-0.022697
0.00289992
-0.0936438
-0.06413
-0.0432463
0.0562575
-0.0428826
-0.0677862
-0.316271
-0.125031
0.00521593
-0.0113236
0.111142
0.177068
-0.0704969
-0.145062
-0.177125
0.308686
0.329344
0.349855
0.316023
0.344407
0.266936
0.25938
0.277443
0.286738
0.280771
-1.11736
-0.840517
-1.74069
-1.03112
-0.606305
0.177756
0.135691
0.424094
0.320982
0.39923
0.382905
0.355254
0.316241
0.321007
0.358701
0.0693762
0.170163
0.147472
0.150523
0.0505886
-0.000436709
0.282719
0.275956
0.312707
0.336283
0.306465
0.339864
0.198217
0.1973
0.198553
0.194636
0.194224
0.194581
-0.53254
-0.476154
-0.490113
-0.464026
-0.528157
-0.520745
0.0287232
0.00732037
0.00659398
0.00847365
0.0289847
0.0294742
-0.171375
-0.2342
-0.289551
-0.279403
-0.321165
-0.392006
-0.409209
-0.304618
-0.216136
-0.219685
0.0936759
0.333777
0.152345
0.3333
0.211068
0.251637
0.203883
0.188961
0.229114
0.0854762
0.155673
-0.0835433
-0.601179
-0.485977
0.401712
0.473545
0.24818
0.103965
-0.181642
-0.0335966
0.23474
0.1678
0.212084
0.28138
0.274696
-0.329518
-0.284933
-0.00519417
0.196414
-0.0986863
-0.15331
-0.144765
0.0092734
-0.0358267
)
;

boundaryField
{
    wall-4
    {
        type            zeroGradient;
    }
    velocity-inlet-5
    {
        type            zeroGradient;
    }
    velocity-inlet-6
    {
        type            zeroGradient;
    }
    pressure-outlet-7
    {
        type            fixedValue;
        value           uniform 0;
    }
    wall-8
    {
        type            zeroGradient;
    }
    frontAndBackPlanes
    {
        type            empty;
    }
}


// ************************************************************************* //
