/*--------------------------------*- C++ -*----------------------------------*\
| =========                 |                                                 |
| \\      /  F ield         | OpenFOAM: The Open Source CFD Toolbox           |
|  \\    /   O peration     | Version:  4.0                                   |
|   \\  /    A nd           | Web:      www.OpenFOAM.org                      |
|    \\/     M anipulation  |                                                 |
\*---------------------------------------------------------------------------*/
FoamFile
{
    version     2.0;
    format      ascii;
    class       surfaceScalarField;
    location    "19";
    object      phi;
}
// * * * * * * * * * * * * * * * * * * * * * * * * * * * * * * * * * * * * * //

dimensions      [0 3 -1 0 0 0 0];

internalField   nonuniform List<scalar> 
1300
(
3.75095
5.62643
-6.03525
3.75095
-5.89429
5.62643
-4.59149
4.59149
-1.28876
1.28876
1.87676
1.87419
-2.72668
2.72668
-4.12941
4.12941
-2.68041
2.68041
-5.2464
5.2464
-5.06755
5.06755
4.67689
-4.67689
-4.7831
4.7831
-1.77045
1.77045
-3.90612
3.90612
3.16927
-3.16927
-4.66137
4.66137
-0.459413
0.459413
-0.552713
4.30367
3.19824
3.19824
-2.39315
2.39315
-4.8549
4.8549
6.21783
-6.21783
9.1305
-9.1305
-3.09525
-3.42891
1.32517
-8.21121
-4.56912
-4.56912
-8.44025
8.44025
-2.81382
2.81261
2.93645
-2.93645
-1.82516
1.82516
-4.51416
-0.0773351
-4.51416
4.59625
-0.00475649
4.59625
-1.4001
0.111333
-1.4001
4.06016
-4.06016
1.14001
0.148756
1.14001
3.06423
-3.06423
-1.87699
3.75375
1.87396
-1.87154
6.17521
-1.87941
3.75361
-5.60018
5.60018
-3.03576
0.309081
-3.03576
2.68007
0.0466049
2.68007
-5.23299
5.23299
-3.80527
-0.324138
-3.80527
4.34859
-0.219188
4.34859
2.9028
-2.9028
-2.70983
0.0294228
-2.70983
2.63091
0.0495009
2.63091
0.353731
5.2727
-5.98016
8.79277
-5.2727
0.026298
5.20839
0.0380124
5.20839
-5.1058
0.0382495
-5.1058
5.01072
0.0568355
5.01072
4.75823
-0.0813382
4.75823
-4.79659
0.119701
-4.79659
-3.33336
-3.46239
-4.87133
0.0882324
-4.87133
-1.75218
-0.0182709
-1.75218
1.71698
0.0534702
1.71698
-3.4641
3.4641
-4.32317
0.417046
-4.32317
3.12327
0.0459961
3.12327
1.86911
1.88185
5.62006
-5.62006
2.45079
-4.60591
-0.0554552
-4.60591
-4.75616
-4.37434
4.75616
-0.0947916
-0.763249
0.303836
-0.763249
3.16041
0.0378328
3.16041
2.553
0.0779063
-2.553
0.159853
3.35344
-3.35344
1.76195
0.631199
1.76195
-5.57181
5.57181
4.94912
0.0616015
-4.94912
0.0942157
6.15658
0.0612475
6.15658
-6.1998
-0.0180321
-6.1998
3.33996
-6.76887
-3.45091
4.68334
0.0997527
-4.68334
0.114223
2.89344
0.0430189
2.89344
-2.9111
2.9111
-2.98239
0.0459344
-2.98239
-2.22858
0.403427
-2.22858
1.51927
0.305883
1.51927
-4.38658
-0.127573
-4.38658
-4.49592
0.172748
4.49592
0.100329
0.967009
-0.967009
-1.53461
0.134517
-1.53461
-4.21615
-0.170438
4.21615
-0.155989
-3.91316
-0.146998
-3.91316
-3.02232
0.0399329
3.02232
0.041905
3.11292
0.0474841
-3.11292
0.0486967
-1.87099
3.75283
-1.87997
3.75393
-5.37685
-0.223329
-5.37685
5.69988
-0.0997029
5.69988
3.50035
0.405772
-3.50035
0.464592
2.93441
-0.254338
2.93441
-5.19357
-0.0394126
-5.19357
5.20763
0.0253557
5.20763
3.36038
-0.425968
-3.36038
-0.444889
4.47835
-0.129759
4.47835
2.96236
-0.0595593
2.96236
-2.86145
-0.0413484
-2.86145
2.77445
-2.77445
2.72673
0.0477278
-2.72673
0.016897
-11.1325
11.1144
-0.034934
-11.0975
5.17345
5.17345
4.171
0.587229
4.171
-5.00773
0.211143
-5.00773
3.31002
-6.76094
3.45434
-6.78769
3.45298
-11.6642
3.36965
-6.83204
5.07453
-5.07453
4.9637
0.110837
-4.9637
0.0923673
-1.77134
0.019156
-1.77134
-2.78551
-0.678587
-2.78551
4.15598
-0.691881
4.15598
-3.02941
3.02941
-3.07834
0.0489281
3.07834
0.04493
4.55251
-0.0741606
-4.55251
-0.0533978
0.962513
0.177495
-0.962513
0.199264
3.55117
-0.197725
3.55117
-3.16174
-0.191698
-3.16174
-1.77154
0.000200612
1.77154
-0.00959168
-5.81939
0.247578
-5.81939
-11.1909
0.0933499
-11.1529
-6.10645
-6.10645
2.3338
11.1266
-2.8551
-0.00635004
2.8551
0.0383317
2.97403
0.0553852
-2.97403
0.0629245
-2.84237
0.0679183
2.84237
0.0687289
-2.62857
0.399983
-2.62857
-1.11552
1.11552
-1.29849
0.182973
1.29849
0.220778
1.18822
-0.221207
1.18822
1.6344
0.0825835
-1.6344
0.0997859
-3.80549
-0.107667
-3.80549
5.5278
0.172083
5.5278
-3.03987
-0.121879
3.03987
-0.0775034
-0.0333577
11.1478
-5.1401
0.0342948
5.1401
-11.209
11.2433
-3.26773
0.639167
3.26773
0.903265
5.29481
0.277003
-5.29481
0.287076
5.17314
0.0344938
-5.17314
0.0986044
-2.31277
-0.47274
-2.31277
-4.88967
-0.487182
4.88967
-0.733688
-11.4743
-0.201266
11.6756
-11.4175
6.02065
0.13593
-6.02065
11.3793
-0.965538
-0.00147036
0.965538
0.149984
1.47661
-0.288395
1.47661
3.71511
-0.163939
-3.71511
-0.0903849
-5.3007
0.107124
5.3007
0.227102
-1.87993
-0.432842
1.87993
-0.403321
-4.26617
4.304
1.90903
-3.28671
-3.48216
-7.66105
1.85191
1.90092
4.3027
-7.2129
-4.45129
-7.09867
7.27127
-6.98419
-9.30916
9.22782
7.44861
-7.59561
-5.7869
5.83183
6.48156
-6.43966
1.87782
1.87593
6.61985
-6.31077
-16.0248
15.8014
8.42906
-8.7532
13.3587
-13.3981
-13.6984
13.7329
-5.76811
5.79754
-6.65021
6.60886
-6.81858
6.74108
-3.25831
-3.52938
9.36814
-9.27991
11.643
-11.6984
-8.35455
8.7716
3.38136
0.922648
3.42884
-1.88234
3.76016
-1.87127
3.7803
3.46819
-6.7265
3.29274
-6.77491
6.05524
5.58773
-5.96045
-1.7006
-5.88476
5.92777
-5.82891
5.89763
8.97519
-9.05253
-1.88577
3.7617
-1.86816
3.76908
-3.42594
-2.36096
3.37994
0.922764
5.72148
3.64666
-5.82123
-1.27744
-7.72764
7.5637
-7.98558
7.79388
-0.449577
5.8214
-5.37182
4.40532
-1.54402
7.36541
5.72725
5.93839
5.86765
-5.59065
1.11654
-6.48836
-6.39414
-2.59028
2.7248
2.61042
-2.46166
5.87624
1.57236
5.72026
-5.50125
-2.09435
-5.60892
3.81969
2.01214
3.86862
4.07621
2.40535
4.11614
3.03029
-3.03678
0.0064884
-3.05581
6.0861
0.724922
-5.41677
-4.494
3.60406
3.01579
3.65066
-4.95385
-1.35692
-4.48926
-9.60825
-6.4165
-10.0954
10.3153
5.4861
10.2156
-11.5377
11.7648
6.09047
2.33859
5.87128
-4.87301
-3.88019
-5.31789
11.1368
-0.880692
-10.2561
-8.16152
-5.53688
8.13616
5.22255
8.13313
5.59976
8.23173
3.16212
7.97469
-8.38467
2.84779
-3.84876
-1.91935
-3.83186
3.74622
2.05131
3.79572
-4.14321
-2.507
-4.14956
-4.19225
-2.62633
4.25181
2.35705
-4.29321
-3.69237
4.41509
2.32599
3.16915
-7.62045
3.66289
-7.19227
-6.5998
-2.68011
-6.50743
4.25259
2.58106
-6.83364
-2.47392
10.9494
-5.36169
9.24882
-7.12901
-4.56941
-7.18241
-6.75731
-1.59724
-6.58456
-8.73838
8.26564
-9.04706
8.35518
12.7062
-5.68686
-7.01931
-3.96839
-2.47127
3.91969
-0.490853
-3.71121
3.7177
0.0489518
3.82925
4.7519
4.26105
-3.89847
-1.93044
-3.83554
3.83481
2.06282
3.90273
6.78735
2.18784
6.7826
-6.42078
-2.63175
-6.54835
9.05217
-8.64874
2.96542
-2.96522
5.23268
2.56121
-5.03495
-2.69269
6.01106
-3.02848
-2.98258
-12.2189
10.6053
1.61363
-4.85353
-0.448203
0.0112097
-5.51091
-3.79825
5.39121
0.547186
11.1525
7.35424
-5.51315
5.76073
6.16247
6.22407
-0.170078
5.79841
-5.15924
5.24813
-2.24036
-3.00777
5.25508
-5.42552
-1.29327
-5.17424
3.88096
0.29474
1.8585
-1.55466
-2.06513
-0.525157
-1.96534
1.59562
1.0148
1.77311
0.971252
1.75355
-2.98066
0.596779
2.38388
-2.0094
-1.86488
-3.54439
-1.00445
4.54884
5.53142
2.03228
-5.44104
-0.167883
2.73946
-2.68599
-0.701662
-2.84273
2.15276
-2.85442
-3.52014
-1.87645
5.39659
-3.37229
-0.463256
3.3169
0.551717
-3.82174
-2.06302
3.7758
0.340341
-3.13267
6.21486
-3.08218
-5.06311
2.52901
3.55709
4.54115
-4.79005
2.44411
2.34594
-1.23297
3.47794
0.172721
3.2236
-6.29296
4.93605
5.479
3.2926
-5.88477
1.39551
-4.89745
8.96225
-8.21104
-0.751207
3.88337
5.07888
7.24827
5.45789
-5.73824
12.9865
-2.20034
-6.01071
7.09779
-3.80519
5.07488
-8.88007
-10.5328
4.52206
-11.2288
11.6046
-0.375862
-2.93519
-8.60247
14.164
-1.78524
-12.3787
8.43038
-6.45902
-3.76736
10.2264
-7.33971
7.64755
-3.78078
-3.86677
-9.18706
-4.21106
9.07994
2.68482
-9.40313
12.2509
-1.42844
5.50946
0.361817
5.37971
5.40657
-5.58427
0.177702
1.93315
-5.71392
4.32177
-9.90604
-5.15438
9.86244
-4.70806
-7.83449
-7.23582
-0.598662
1.7795
10.4714
-7.37926
5.40069
1.97857
3.32428
0.578448
-3.37201
-0.45985
0.348229
4.48074
-4.82896
4.14395
4.22186
3.3986
1.08214
3.79398
2.13379
-3.83231
-0.317246
-4.0919
1.46557
-1.73485
-3.61375
5.07932
-4.039
0.425255
-2.69244
-3.55172
6.24416
-4.61179
3.05866
3.1562
5.12148
-4.94003
1.38831
-2.43731
-2.50272
2.6507
-4.38555
1.93584
3.14348
4.26183
0.569462
5.06293
4.79951
-7.64399
0.451715
8.44617
-7.16873
1.98984
6.24189
-7.39053
0.154701
-6.35273
1.03192
-6.39361
-5.80172
5.16475
-6.76199
-3.71532
6.13945
0.643141
-6.23978
-0.344779
-5.92726
-2.81112
-6.3601
-3.09056
-5.95649
-8.8288
-1.63055
-7.19824
6.63508
-6.55815
-3.53729
7.29183
1.06334
-7.30325
7.30178
-7.39013
7.10173
0.0948135
3.62289
4.35586
1.88459
-2.38992
4.27451
-5.00523
7.19307
-8.38136
3.37613
3.86699
-6.49874
-4.51437
5.00571
4.04646
5.3116
8.97173
-10.553
1.58128
-10.8952
12.2362
-1.341
-16.6511
5.75597
-7.67941
2.69489
0.270534
2.71404
0.668017
2.40821
-3.07623
-2.2972
-2.3068
-2.2436
-3.29001
5.53361
1.08584
-3.32199
2.23614
-3.43655
4.52239
-0.0720597
-3.24993
5.20852
-2.80031
5.47906
-3.50861
1.97045
3.21075
5.49353
-2.28277
4.22336
-1.66216
1.75934
-4.04211
-1.53067
-3.00542
5.05674
-3.23874
3.664
-0.227771
3.89177
-4.00758
0.979093
-0.608981
3.61288
3.77273
4.15224
-3.0701
2.87245
-4.53461
-1.16966
-3.96514
-0.821665
-0.39732
-3.66677
4.06409
6.03816
-6.43548
-5.28521
9.58572
-4.30051
7.73556
-5.4222
-2.31337
-4.25721
-4.39153
3.85723
1.94118
9.67674
0.22002
-5.64222
-4.93922
-4.03596
3.20156
2.04657
-2.06001
3.67364
2.0488
-0.190304
0.599839
1.17327
1.94413
-1.34429
0.182126
1.762
-1.37253
1.985
0.754461
-2.06758
0.102242
-1.29713
3.44989
1.08675
-2.10155
0.757262
1.12275
-3.36312
4.686
-2.35582
-2.33018
5.80875
1.15267
-3.5085
4.02156
-3.72682
2.27035
-3.27481
-1.23814
-4.96496
-3.3926
-2.46869
4.70484
-3.06491
5.09719
1.1847
-4.92931
6.11401
-3.52029
1.64384
-2.98233
3.73679
-1.0021
-1.98023
2.74509
2.6515
-2.83898
-0.00374474
-0.0938934
2.31815
-2.41204
-0.536274
-2.54568
-4.56749
4.90783
-2.11238
4.55649
2.16213
-1.91244
6.46893
1.8146
-3.72704
-3.24851
-3.71177
-1.3811
3.16005
-1.80031
-3.51758
-5.66709
3.94355
-0.719947
-6.35532
7.60647
-1.25115
-3.33953
-1.59652
5.47989
-7.54982
1.83589
-3.22805
4.37842
4.55114
3.83119
-12.4071
0.028362
-6.921
0.945916
-7.86691
6.0248
-3.45739
7.97945
-10.5925
7.05517
-9.52912
7.22824
-0.638672
5.9242
-5.7465
4.33191
-8.54297
-5.85815
6.53336
-4.19477
6.89517
-4.60318
11.4983
-6.03162
7.0608
4.43755
-1.54436
-5.63805
-6.7283
5.18394
0.332505
5.71221
4.95535
-2.82155
4.6381
2.25445
-4.69176
-2.1311
-6.5662
1.87443
-3.41
-1.91992
3.79436
3.20156
3.78
1.29164
-3.32015
7.03555
-7.63421
-2.32749
-3.47423
6.74475
-1.56081
4.21828
-7.69251
-2.17534
5.01769
-0.992227
-4.02546
0.66917
-4.38449
1.61797
-6.00246
5.14401
-5.48879
2.14628
-9.82569
-5.15697
-5.00699
-2.22552
-5.16461
-7.67193
5.44641
-1.91596
5.38582
-8.71693
7.7247
-3.51924
8.96565
-5.33845
-1.02165
5.74177
1.35996
10.3256
0.0753216
-4.58969
-1.80285
3.90363
-2.10078
1.39872
-3.59145
0.31218
2.46984
3.33891
-6.3508
-0.147935
-4.73763
-3.89576
7.94222
5.68996
11.7281
1.17511
9.15319
-1.21097
10.3283
4.10063
4.32141
-2.97744
4.55872
1.08665
4.46279
-0.833774
2.80422
1.88027
1.862
0.823993
2.30009
1.47264
3.27918
0.202954
-2.10384
4.65413
-8.69009
-0.988083
-8.10286
1.12496
5.84759
-4.72263
3.13127
-1.0847
1.03049
0.221367
-1.84799
1.62663
-2.78641
-2.0383
-0.276294
-1.5999
2.35716
1.84999
-2.08087
-0.705538
0.330628
-3.72323
2.94418
-2.94792
-0.296427
5.81758
-2.70955
0.297512
-1.06571
-2.24817
-2.77332
2.67108
6.19235
0.276579
3.11017
5.18441
3.12139
0.299834
6.26257
-6.63843
-3.64347
-6.61007
-0.585271
4.89462
2.5419
7.92952
6.97945
5.41864
-2.27387
-9.90808
6.56788
-2.00916
5.22688
-1.20142
-4.80104
4.90936
2.28371
-5.5525
0.0637046
-4.73734
-6.7465
-0.627537
8.35224
-9.69808
8.67643
5.86531
1.33293
-4.33311
-0.673881
4.15013
0.171276
10.4996
-1.18959
-6.84718
8.03678
-4.65799
3.66991
0.861689
2.81195
2.48832
1.40361
-5.44357
-10.1662
-1.78977
-1.57335
-4.11995
0.428899
-2.27889
6.2964
-2.62649
3.98303
5.41029
6.44078
-2.21498
-4.2205
6.51549
-2.53246
3.90832
)
;

boundaryField
{
    wall-4
    {
        type            calculated;
        value           uniform 0;
    }
    velocity-inlet-5
    {
        type            calculated;
        value           uniform -3.75095;
    }
    velocity-inlet-6
    {
        type            calculated;
        value           uniform -5.62643;
    }
    pressure-outlet-7
    {
        type            calculated;
        value           nonuniform List<scalar> 8(6.03525 5.89429 6.52415 6.88604 6.79575 6.79088 6.76436 6.82263);
    }
    wall-8
    {
        type            calculated;
        value           uniform 0;
    }
    frontAndBackPlanes
    {
        type            empty;
        value           nonuniform 0();
    }
}


// ************************************************************************* //
