/*--------------------------------*- C++ -*----------------------------------*\
| =========                 |                                                 |
| \\      /  F ield         | OpenFOAM: The Open Source CFD Toolbox           |
|  \\    /   O peration     | Version:  4.0                                   |
|   \\  /    A nd           | Web:      www.OpenFOAM.org                      |
|    \\/     M anipulation  |                                                 |
\*---------------------------------------------------------------------------*/
FoamFile
{
    version     2.0;
    format      ascii;
    class       volVectorField;
    location    "19";
    object      U;
}
// * * * * * * * * * * * * * * * * * * * * * * * * * * * * * * * * * * * * * //

dimensions      [0 1 -1 0 0 0 0];

internalField   nonuniform List<vector> 
918
(
(0.985056 -0.000711386 0)
(0.00476204 2.96626 0)
(-0.011114 1.59814 0)
(0.979823 0.00241663 0)
(-0.00400911 1.56899 2.73746e-21)
(-0.00704002 2.9489 -8.20666e-19)
(0.854743 1.21894 2.98735e-19)
(0.435974 0.204999 -3.72857e-21)
(0.999904 -0.000349376 0)
(0.0370214 0.803132 0)
(-0.027314 1.19985 0)
(0.778682 -0.00985965 0)
(0.0114947 2.93012 0)
(0.00213145 2.79458 0)
(-0.0189811 3.16419 4.71642e-19)
(-0.00447528 1.46873 -3.49278e-21)
(0.55981 0.0976449 2.33396e-19)
(0.180179 1.20729 2.61507e-19)
(0.962264 0.00398485 0)
(0.00197336 1.34928 0)
(0.147317 0.252003 -2.00287e-19)
(1.00201 -0.00528613 0)
(1.00085 -0.00997427 0)
(0.976159 -0.00635514 0)
(0.689474 -0.0307383 0)
(0.0187201 2.63036 0)
(-0.015014 2.91026 2.70756e-19)
(-0.0232525 1.6164 0)
(-0.0264994 1.74265 0)
(-0.0232679 1.61181 0)
(-0.00428633 1.83514 0)
(-0.00043306 1.59573 -2.12337e-21)
(-0.00553187 1.47949 0)
(-0.020461 2.9875 -2.8732e-23)
(-0.0169943 3.00541 6.51944e-19)
(0.00202118 3.00018 0)
(0.867961 -0.010309 0)
(0.421068 0.958064 -5.04409e-21)
(0.832044 1.23459 -4.06406e-19)
(0.979239 1.07123 3.86252e-19)
(0.698473 1.33352 -6.90761e-20)
(0.694272 1.32258 3.91409e-19)
(0.463739 0.281398 3.63565e-21)
(0.454252 0.190659 0)
(1.16862 0.589867 0)
(0.439715 0.3002 1.71379e-20)
(0.394674 0.203388 -1.77945e-20)
(0.919333 -0.00748816 0)
(1.00035 5.79948e-05 0)
(0.999916 0.000310284 0)
(1.00329 -0.00778821 0)
(1.00094 -0.00106273 0)
(1.00022 4.66469e-06 0)
(-0.00345824 1.72094 -1.48234e-19)
(0.0545316 0.917742 0)
(0.0674283 0.887827 0)
(-0.0113398 0.858254 0)
(-0.00902733 0.785669 0)
(0.0289728 1.53918 0)
(-0.03971 1.29259 0)
(-0.0518558 1.1092 0)
(-0.0214747 1.38388 0)
(-0.0144891 1.25798 0)
(0.855803 -0.000467895 0)
(0.871616 0.00843104 0)
(0.789105 -0.004285 0)
(0.865973 0.0140603 0)
(0.764451 -0.00966184 0)
(0.0153608 3.00063 2.94498e-19)
(0.0117211 3.00823 0)
(0.00650168 3.00265 0)
(0.0141596 2.99716 3.25044e-24)
(0.00840112 2.9585 -4.44936e-19)
(0.0152004 2.98192 0)
(0.0111564 2.90372 0)
(0.0260527 2.93003 5.72152e-25)
(0.00454992 2.82492 0)
(0.0323029 2.91522 0)
(-0.00674005 2.74461 0)
(0.307543 3.56132 0)
(-0.145887 3.6393 0)
(0.138062 3.25646 -4.35354e-19)
(-0.0090933 2.992 0)
(-0.0169767 1.8125 0)
(0.000708518 1.62057 3.44451e-21)
(-0.00341132 1.47597 -5.27233e-21)
(0.610512 0.155825 -8.02493e-20)
(0.550708 0.0634773 -7.87937e-20)
(0.592905 0.193984 -2.42717e-19)
(0.534585 0.12586 -1.62185e-19)
(0.192928 0.886315 0)
(0.26028 1.36057 -2.62542e-19)
(0.371115 1.32038 4.35049e-19)
(0.987357 0.00821478 0)
(0.941655 0.00554035 0)
(1.00031 0.000411042 0)
(1.00327 0.00947353 0)
(1.00286 0.00792037 -4.63216e-19)
(0.991826 0.00984152 3.53584e-19)
(-0.0113743 1.50345 0)
(0.00113892 1.33765 0)
(-0.034554 1.62176 0)
(-0.0230204 1.53769 0)
(-0.00202292 1.38475 0)
(0.223452 0.26928 6.19094e-20)
(0.268043 0.249893 0)
(0.993446 -0.00810718 0)
(0.954592 -0.0060691 0)
(0.8372 0.0222943 0)
(0.806002 0.0340116 0)
(0.743864 -0.0228267 0)
(1.00008 -0.000796655 0)
(0.74809 0.0530321 0)
(0.606523 -0.00841159 3.14142e-19)
(-0.0351337 2.86696 1.39025e-19)
(0.0443767 2.90746 0)
(0.0576015 2.88242 0)
(-0.00553813 2.69566 0)
(-0.013756 2.98507 2.48246e-19)
(-0.0184233 2.8954 0)
(-0.0159066 2.98805 -7.87967e-19)
(-0.0133241 2.92537 2.73166e-19)
(-0.0228129 1.81336 0)
(-0.0180521 1.81061 0)
(-0.000123202 1.61858 -5.3807e-23)
(-0.000840532 1.5921 0)
(-0.00651619 1.4756 0)
(0.933955 -0.00733215 0)
(0.84993 -0.0103718 0)
(0.858506 0.00928944 0)
(0.948084 -0.00763689 0)
(0.883654 -0.00760551 0)
(0.531337 1.15552 2.09077e-21)
(0.584589 1.19981 0)
(0.383441 0.902454 2.98772e-21)
(0.324365 0.761533 0)
(0.944181 1.10511 -1.1048e-19)
(1.05617 0.908716 2.27876e-19)
(0.385787 1.41428 0)
(0.551355 1.39762 0)
(0.546087 1.34768 0)
(0.106221 0.158196 -5.59107e-20)
(0.503133 0.268758 0)
(0.489298 0.169442 4.63545e-20)
(1.02955 0.959212 0)
(1.09915 0.805636 0)
(1.12221 0.74953 -1.99275e-19)
(1.14685 0.643094 0)
(1.19463 0.422273 2.54172e-20)
(0.956998 -0.00882103 0)
(0.961952 -0.0103457 0)
(0.901393 -0.00768966 0)
(0.984407 -0.00915143 0)
(0.974727 -0.00945279 0)
(0.937292 -0.00587213 0)
(1.00015 0.00211975 0)
(1.00088 0.00135427 0)
(0.999882 0.000900268 0)
(-0.0342829 1.97634 8.45696e-20)
(0.0914192 1.67657 0)
(-0.0250277 1.96197 1.06588e-19)
(9.2068e-05 1.74493 -5.70755e-20)
(0.121386 1.20514 -2.16766e-19)
(0.0764118 1.04132 0)
(0.0982627 1.04445 0)
(-0.039561 0.899564 0)
(-0.046618 0.853454 0)
(0.0674873 1.71064 -1.21588e-23)
(-0.00438544 1.53046 0)
(0.0366135 1.71377 7.87692e-21)
(-0.00049764 1.542 -7.22609e-21)
(-0.0631785 1.01814 0)
(-0.0625889 1.16539 0)
(-0.0578609 0.978631 0)
(-0.0138053 1.44556 0)
(-0.00716674 1.29162 0)
(0.941947 0.015702 0)
(0.878196 0.000460495 0)
(0.9222 0.0090852 0)
(0.84219 -0.00176188 0)
(0.80288 0.00385368 0)
(0.897858 0.0109438 0)
(0.883633 0.00642955 0)
(0.788254 -4.94622e-05 0)
(0.00445095 3.06448 -2.44695e-21)
(0.0165126 3.05776 0)
(0.0153478 2.96909 0)
(0.00889861 2.87643 0)
(0.966711 4.00137 0)
(1.31214 3.26102 4.89681e-19)
(0.0705272 3.0829 0)
(-0.024677 2.91128 0)
(-0.0217948 1.80111 0)
(-0.0224847 1.80779 0)
(-0.0199829 1.80306 0)
(-0.00923813 1.82302 1.87892e-21)
(-0.0152509 1.8214 0)
(-0.0128455 1.81921 0)
(-0.00551914 1.49573 -2.17861e-21)
(-0.000211401 1.66581 4.02464e-21)
(0.000992721 1.63806 5.40385e-21)
(-0.00571938 1.47721 0)
(0.636697 0.126116 1.18259e-19)
(0.568671 0.0343345 -1.15087e-19)
(0.263031 1.4982 0)
(0.236554 0.632859 -8.70264e-20)
(0.195851 1.62658 -2.89427e-19)
(0.188797 1.15387 2.89985e-19)
(0.902372 0.00662066 0)
(0.967581 0.010534 0)
(0.974603 0.0105189 0)
(0.924023 0.00611478 0)
(-0.0114774 1.48133 0)
(-0.0113254 1.49673 0)
(-0.00315314 1.31334 0)
(0.399991 0.30923 1.58009e-19)
(0.339484 0.289094 -1.93134e-19)
(0.339006 0.227161 0)
(1.12297 0.0841532 -8.74495e-22)
(1.10523 0.0372244 0)
(1.03426 0.0371657 0)
(0.941117 0.00498323 0)
(0.660455 0.0951615 0)
(0.690254 0.0680336 -5.06055e-19)
(0.585351 0.0156895 1.93259e-19)
(0.00971755 2.98297 1.75047e-19)
(-0.03163 2.86895 2.01406e-20)
(0.00203818 3.04958 -5.28709e-21)
(0.0206314 3.04332 1.96955e-19)
(-0.0153556 2.99625 9.08195e-21)
(-0.0127898 2.94941 -3.68455e-23)
(-0.0175788 3.01156 -1.71123e-19)
(0.0141675 3.02327 1.23133e-19)
(0.00664123 3.03668 -1.96703e-19)
(0.92071 0.00438349 0)
(0.928756 -0.00121607 0)
(0.835731 -0.00674568 0)
(0.956918 0.0118899 0)
(0.943288 0.0134557 0)
(0.880688 0.00713238 0)
(0.913525 0.0135915 0)
(0.924669 0.0157434 0)
(0.830547 0.00760982 0)
(0.75302 1.43102 1.4292e-19)
(0.798957 1.5259 0)
(0.256181 0.418953 1.38077e-20)
(0.196456 0.616624 1.08218e-19)
(0.295587 0.726954 -6.03604e-20)
(0.251933 0.609936 1.1044e-19)
(0.280972 0.695407 3.09649e-19)
(0.106915 0.185843 8.45198e-20)
(0.56352 0.223679 1.74232e-19)
(0.531933 0.246613 4.32269e-20)
(0.512414 0.151921 8.81344e-20)
(1.18505 0.47705 1.14166e-19)
(1.19826 0.272437 1.20301e-19)
(-0.0253166 1.91379 1.63696e-20)
(-0.0448371 1.66629 0)
(0.986363 0.0276293 0)
(0.955245 0.0173473 0)
(0.903057 -0.0025615 0)
(0.011028 3.07445 0)
(0.0208253 2.9441 3.35637e-19)
(0.0172377 2.95637 0)
(0.00648192 2.85071 -3.34502e-19)
(0.00561388 3.09206 7.74443e-20)
(0.00590553 3.08184 0)
(0.885979 1.83292 -1.01864e-19)
(1.2759 2.39137 2.26366e-19)
(0.866631 1.93944 -5.84791e-19)
(0.0208216 2.98489 -1.29323e-19)
(0.0370629 3.00757 0)
(-0.0320456 2.88237 0)
(0.0200203 1.68639 1.70876e-21)
(0.00432288 1.69279 -2.93325e-21)
(0.00559896 1.52321 -1.27953e-21)
(0.259841 1.31474 2.76999e-19)
(0.202731 0.432969 -1.89741e-19)
(0.00875457 1.93978 1.95017e-19)
(0.138428 1.83747 -2.5248e-19)
(0.155718 1.43174 4.22989e-20)
(0.00534785 3.11782 -4.32282e-19)
(0.0130234 3.11837 4.88174e-19)
(-0.00943393 2.98053 2.15875e-19)
(-0.00381236 2.97806 -1.91324e-19)
(-0.0218292 2.88237 -2.19981e-19)
(0.00769517 3.09829 -5.67672e-19)
(0.000829595 3.10578 5.74029e-19)
(0.219616 0.615186 0)
(0.160744 0.610405 -2.13825e-19)
(0.157229 0.253302 9.44759e-20)
(0.31711 0.811328 2.57998e-19)
(0.158938 0.221623 -3.95711e-19)
(1.20137 0.174748 -1.96019e-20)
(1.19928 0.319624 0)
(1.18723 0.126288 4.70865e-20)
(0.0380606 1.74267 5.33518e-22)
(-0.0151379 1.80604 0)
(-0.00925784 1.57896 0)
(0.327209 1.18659 -1.00331e-19)
(0.351305 1.00554 -2.12129e-19)
(0.17452 0.309667 3.63919e-19)
(1.00541 -0.011462 0)
(1.00746 -0.007609 8.51988e-20)
(-0.0234652 1.80074 0)
(-0.033603 1.80726 0)
(1.00201 0.00333361 7.42947e-22)
(1.00357 0.00987448 1.73554e-19)
(-0.00871955 1.82775 -2.53325e-21)
(-0.00553571 1.82655 0)
(0.0386677 3.18387 5.2804e-20)
(0.392509 3.49455 0)
(1.12465 0.635335 2.29752e-20)
(1.01308 0.0131608 -8.26661e-22)
(1.02103 -0.011136 0)
(1.0017 -2.77828e-05 -2.75995e-23)
(0.129422 1.12579 0)
(0.155201 2.64127 0)
(-0.173837 1.50592 0)
(-0.127576 2.1949 1.56823e-20)
(-0.0705525 1.97154 2.31145e-20)
(1.00515 0.0081257 1.02343e-21)
(1.04735 0.0158114 0)
(1.07164 0.0289395 0)
(-0.0235182 1.81079 0)
(-0.012084 1.84952 0)
(-0.0242898 1.78284 0)
(0.314098 1.43583 -1.78745e-19)
(1.01106 -0.0099573 0)
(1.00939 -0.0157236 0)
(1.00229 0.000323149 1.07481e-19)
(1.00537 -0.00479693 -1.28486e-19)
(1.00124 -0.00114849 0)
(-0.0267651 1.80546 0)
(-0.0247593 1.79889 0)
(-0.0249275 1.8027 0)
(-0.0253944 1.78253 0)
(-0.0272723 1.78385 0)
(-0.0273062 1.78471 0)
(1.03149 -0.0172652 0)
(1.02297 0.0211426 -4.16067e-22)
(0.796287 1.25769 2.02594e-19)
(1.00258 9.58806e-05 -1.07905e-19)
(1.0037 0.00543186 1.29064e-19)
(1.00121 0.00218302 0)
(1.01355 0.0102499 1.048e-19)
(1.00879 0.00875447 -1.29907e-19)
(1.0091 0.0156002 0)
(-0.0109044 1.84897 0)
(-0.00792603 1.83793 3.50471e-21)
(-0.0051101 1.83665 -2.3694e-21)
(1.18872 0.244083 -1.43583e-20)
(1.12693 0.0854056 0)
(0.054521 3.07678 -2.25912e-19)
(0.0687467 2.84895 -1.78227e-20)
(0.150251 3.19788 3.58447e-19)
(0.144684 3.22746 -2.6301e-21)
(0.137835 3.2428 0)
(0.0203466 3.1382 5.03925e-20)
(0.0808671 3.16262 2.17742e-19)
(0.0728066 3.18919 -9.84103e-20)
(0.0253765 3.12859 0)
(0.678809 0.322367 0)
(0.617465 0.366694 0)
(1.07817 0.657126 -9.13679e-20)
(1.10617 0.799606 1.43946e-19)
(1.14642 0.545435 0)
(1.19088 0.494885 0)
(1.01625 0.0137088 -1.96049e-19)
(1.01433 0.0150645 2.44834e-19)
(1.02489 -0.0103985 0)
(1.02275 -0.0120017 0)
(1.00657 0.00297483 0)
(1.01015 0.00334564 0)
(1.00507 0.00172277 0)
(1.00966 0.00557816 0)
(1.00834 0.00669198 0)
(1.0044 0.00451624 0)
(0.153719 1.11398 0)
(0.0439435 0.931559 0)
(0.221787 1.19145 0)
(0.171124 1.22062 0)
(0.15006 2.65295 0)
(0.197621 2.66126 -9.3396e-20)
(0.0607143 2.74863 0)
(0.0199183 2.72003 -3.52739e-21)
(-0.173607 2.60239 5.85671e-20)
(-0.143633 1.53084 0)
(-0.105388 1.57549 0)
(-0.21146 1.44384 0)
(-0.178154 1.32279 0)
(-0.368036 2.04467 2.49205e-20)
(-0.103056 2.03517 1.4487e-20)
(-0.120179 2.18661 4.99832e-21)
(-0.0683278 2.10247 0)
(-0.0671268 1.9705 -4.44483e-20)
(-0.0503077 1.94469 -1.21933e-20)
(-0.365183 2.02037 -2.62601e-20)
(-0.182693 1.98323 -1.85463e-20)
(-0.203068 2.10694 -6.3038e-21)
(1.01513 0.0191501 1.92851e-19)
(1.01239 0.00190756 -2.37463e-19)
(1.00725 0.0194107 -1.99587e-19)
(0.992464 0.0130347 2.54862e-19)
(1.04768 0.0165324 0)
(1.0345 -0.00113418 0)
(1.06869 0.0392258 0)
(1.05402 0.0229536 0)
(1.0532 0.0158098 0)
(1.10538 0.0775811 0)
(1.08164 0.0468183 0)
(1.08722 0.0378574 0)
(-0.013446 1.83073 -5.24546e-22)
(-0.0224531 1.82314 0)
(-0.0173477 1.82266 0)
(-0.0212151 1.8645 4.85067e-21)
(-0.0204695 1.86817 -1.65986e-22)
(-0.0322567 1.81636 3.95994e-21)
(-0.0301774 1.80931 -3.98607e-21)
(-0.0313697 1.79588 0)
(-0.030084 1.80014 0)
(-0.0301612 1.80014 0)
(-0.0300678 1.77465 0)
(-0.0193328 1.74457 0)
(0.386916 1.46191 3.40977e-19)
(0.422722 1.47191 1.34414e-19)
(0.593485 2.40569 -6.62968e-20)
(0.409825 2.50278 1.91484e-19)
(0.34626 2.08147 -8.16194e-21)
(1.0208 -0.00837404 0)
(1.0151 -0.00995052 0)
(1.0149 -0.0163527 0)
(1.00705 -0.00116624 0)
(1.00468 -0.00166188 0)
(1.0075 -0.00464256 0)
(1.00905 -0.00392209 0)
(1.01367 -0.00438221 0)
(1.02452 0.0197164 1.89123e-19)
(1.01892 0.0195618 -2.38848e-19)
(1.02496 0.0231305 -1.86949e-19)
(1.02014 0.0222571 2.34056e-19)
(0.767894 1.30457 0)
(0.703398 1.36547 2.46917e-19)
(0.863435 1.20663 1.41509e-19)
(0.920008 1.14672 -1.88084e-19)
(1.14128 2.60855 -2.17484e-19)
(0.836406 0.104848 1.22745e-19)
(1.11796 0.10547 0)
(1.1749 0.178079 1.48464e-20)
(1.16897 0.150931 6.32529e-22)
(0.975778 0.122638 0)
(0.169916 2.96359 4.44612e-20)
(0.127756 2.8712 -3.09118e-19)
(0.0413875 2.36355 2.06012e-19)
(0.107049 0.121665 -8.09298e-20)
(0.33998 3.43439 -1.78342e-19)
(0.199242 3.32672 0)
(0.231925 3.36737 2.32096e-19)
(0.26507 3.04476 -2.9187e-19)
(0.367758 3.20672 0)
(0.00667579 3.12025 1.16439e-20)
(0.0180919 3.12888 -1.49912e-19)
(0.0158435 3.1247 2.19862e-19)
(0.037356 3.14001 0)
(0.0355441 3.15148 0)
(1.18437 2.65355 0)
(0.518216 0.853049 -9.62457e-20)
(1.03718 0.974893 -7.56018e-20)
(0.946425 1.05594 0)
(0.78497 0.936604 1.80099e-20)
(1.02381 0.866351 1.1414e-20)
(0.386148 0.468738 -2.30293e-19)
(0.706669 0.336752 -9.08089e-21)
(0.693989 0.276244 9.29331e-20)
(0.618497 0.419618 7.45386e-21)
(0.55898 0.394348 -3.07133e-19)
(0.684704 0.359989 0)
(0.723743 0.416723 1.54226e-19)
(0.721775 0.412025 0)
(0.654335 0.391297 0)
(0.638437 0.321634 0)
(0.752915 0.58246 5.7964e-20)
(1.18005 0.265201 7.82749e-22)
(1.18628 0.395946 0)
(1.20539 0.340726 0)
(0.763456 0.212415 1.39982e-19)
(0.812223 0.515713 -7.75925e-20)
(0.735279 0.494539 1.27505e-19)
(0.915373 0.40878 -1.21285e-19)
(1.02151 0.0144415 1.28479e-19)
(1.01821 0.0141456 -1.31268e-19)
(1.01517 0.0169196 0)
(1.03278 -0.0133228 0)
(1.02881 -0.010043 -1.18538e-19)
(1.02512 -0.0165368 1.17472e-19)
(1.02779 0.00710561 0)
(1.02525 0.0153038 0)
(1.01132 0.00427144 0)
(1.01461 0.00906538 0)
(1.01536 0.00426169 0)
(1.01349 0.00194606 0)
(-0.050399 1.00186 0)
(-0.102463 1.0012 0)
(0.326683 1.21246 1.93432e-19)
(0.300757 1.43369 1.06469e-19)
(0.21506 1.35496 2.42378e-19)
(0.224624 1.36905 -3.84564e-19)
(0.352688 1.32284 0)
(0.372911 1.68327 1.47848e-19)
(0.350997 1.72244 0)
(0.357402 2.03511 1.17922e-20)
(0.360714 2.39328 9.85903e-20)
(0.42824 1.47082 -1.30356e-19)
(0.305292 1.40737 7.81746e-20)
(0.366934 1.3247 -6.34562e-20)
(0.316906 1.35877 1.27168e-19)
(0.258715 1.64057 0)
(0.322694 1.62581 -7.75736e-20)
(-0.299609 2.48927 8.47082e-20)
(-0.166343 2.66453 0)
(-0.0391603 2.59161 -1.31466e-19)
(-0.132914 2.62131 0)
(-0.0925317 2.73175 2.84428e-21)
(-0.126115 2.69018 0)
(-0.339506 1.68866 4.43197e-20)
(-0.439293 1.78992 0)
(-0.335915 1.51985 0)
(-0.313687 1.54296 -4.98852e-20)
(-0.203 2.34208 -4.4399e-20)
(-0.173503 2.56962 -7.64267e-20)
(-0.140999 2.42769 -4.32725e-22)
(-0.196294 1.89125 5.18596e-21)
(-0.266255 1.88355 -6.72217e-21)
(-0.0878175 1.626 0)
(-0.0570329 1.64494 0)
(-0.466105 1.89851 -1.49628e-19)
(-0.387705 1.55056 -1.47265e-19)
(-0.427574 1.76727 1.8324e-19)
(-0.338445 1.82467 0)
(-0.0378078 1.84655 -1.62387e-20)
(-0.037839 1.86373 6.54315e-21)
(-0.0485697 1.87124 -2.204e-21)
(-0.155551 1.85341 -6.26408e-21)
(-0.079029 1.90642 -4.06846e-21)
(-0.091503 1.93092 2.42803e-20)
(1.02335 0.0213569 -1.25033e-19)
(1.02156 0.0160457 1.26165e-19)
(1.01644 0.0136758 0)
(1.00226 0.0472967 1.82216e-19)
(0.993233 0.0342974 -2.11937e-19)
(0.965887 0.0212483 2.44856e-19)
(1.00087 0.0803405 -2.38833e-20)
(1.03416 -0.0158806 0)
(1.03749 -0.00149674 1.07651e-19)
(1.0282 -0.0201483 -1.07773e-19)
(1.0514 0.04327 -5.93651e-21)
(1.05133 0.0280368 5.2683e-20)
(1.04799 0.0478128 0)
(1.04141 0.0425379 -1.95088e-20)
(1.03496 0.0258208 0)
(1.03195 0.0191465 0)
(1.03281 0.010501 0)
(1.03068 0.0149559 0)
(1.04345 0.0259585 4.04022e-20)
(1.04495 0.0189416 -9.13818e-20)
(1.04422 0.0299883 -4.14445e-20)
(1.04296 0.0292025 -4.74224e-20)
(1.04677 0.0545752 8.69152e-20)
(1.07134 0.0489792 0)
(1.07584 0.0943906 0)
(-0.0315012 1.84625 -5.45637e-21)
(-0.0234676 1.82743 -5.50053e-22)
(-0.026234 1.83067 0)
(-0.0184388 1.84353 5.52553e-21)
(-0.0151922 1.83395 1.02566e-21)
(-0.0144133 1.83973 -9.98715e-22)
(-0.0457847 1.93188 9.54432e-21)
(-0.0549002 1.88599 -8.46036e-22)
(-0.0662938 1.8954 4.36329e-21)
(-0.0349951 1.89685 -5.5005e-21)
(-0.0354755 1.90351 6.77329e-21)
(-0.0390631 1.80844 1.90518e-22)
(-0.0404334 1.81971 7.00779e-21)
(0.393251 1.3997 -1.6723e-19)
(0.352217 1.4019 -1.55987e-19)
(0.65292 1.41075 -2.38286e-19)
(0.527432 1.46691 -1.29292e-19)
(0.578263 1.44278 0)
(0.577795 2.38485 5.611e-20)
(0.64527 2.36935 9.7455e-20)
(0.416335 2.47302 3.66319e-20)
(0.430565 2.55234 -7.34194e-20)
(0.528777 2.51282 1.25008e-19)
(0.514109 2.43115 0)
(0.524763 2.4406 -1.53376e-19)
(0.263096 2.5557 2.73648e-19)
(0.361026 2.51406 -2.67406e-20)
(0.290578 2.60856 -4.2038e-19)
(0.89933 2.36576 1.02786e-19)
(0.810259 2.36143 0)
(1.01117 0.00020621 4.23653e-21)
(1.01581 -0.00549712 -3.53915e-21)
(1.01702 -0.00409981 -6.28292e-20)
(1.01528 -0.000503064 6.35908e-20)
(1.01249 0.000423336 0)
(0.623464 1.24845 0)
(0.617503 1.1597 0)
(0.718877 1.07585 0)
(0.614067 1.11563 0)
(1.17084 2.62141 2.66878e-20)
(1.05353 2.35243 0)
(0.851883 2.22824 -4.73481e-22)
(0.830004 2.48805 0)
(0.921596 2.56625 1.15686e-21)
(0.959217 2.51914 -7.53999e-22)
(0.842884 0.148697 0)
(0.813734 0.147315 3.47702e-20)
(0.924684 0.123648 1.8102e-19)
(0.865149 0.121507 -7.25462e-20)
(0.856903 0.0670528 -2.18406e-19)
(1.02234 0.208328 -1.16591e-19)
(0.952266 0.283514 -6.37137e-21)
(0.892861 0.265523 1.65661e-19)
(0.96499 0.19781 1.25635e-19)
(0.934105 0.158699 -2.27918e-19)
(0.909518 0.173639 2.92492e-20)
(0.931074 0.228078 -5.89253e-20)
(0.911344 0.19338 0)
(0.965349 0.15851 1.09263e-19)
(1.00385 0.160897 0)
(1.00095 0.190282 0)
(1.06191 0.109814 3.78841e-20)
(1.03244 0.153223 -5.70033e-21)
(1.02051 0.21153 -1.94783e-20)
(1.05837 0.188659 0)
(1.01978 0.0253539 9.6369e-20)
(1.0363 0.0450833 1.14228e-19)
(1.03413 0.0324665 -9.46283e-20)
(1.03176 0.0494303 -7.69814e-20)
(1.01163 0.0522497 -1.28585e-19)
(0.974621 0.121635 0)
(0.984968 0.07601 0)
(0.970972 0.0453607 -8.80636e-20)
(0.935729 0.0567562 3.65093e-20)
(1.01495 0.0798368 1.09414e-19)
(1.03357 0.107825 -1.13542e-19)
(1.03791 0.12973 1.01314e-19)
(0.999111 0.126553 0)
(1.04214 0.0960754 0)
(1.03087 0.0767485 -4.71193e-20)
(1.02807 0.0796976 -8.76649e-20)
(0.555695 1.07677 -3.29014e-20)
(0.613403 1.4345 6.80586e-20)
(1.15175 2.76365 3.81564e-20)
(1.23186 3.09023 -3.27545e-20)
(1.23846 2.72328 2.48577e-19)
(1.27185 2.72256 -1.54756e-19)
(1.15548 2.35698 8.88311e-21)
(1.21834 2.98469 7.76561e-20)
(1.23728 2.95412 -8.14558e-20)
(1.23843 3.24742 -1.38128e-19)
(1.36291 2.98596 1.61829e-19)
(1.30574 2.90761 0)
(0.513934 0.857522 -5.71303e-21)
(0.139971 1.28439 1.66185e-19)
(0.538958 0.542136 1.54078e-19)
(0.34904 0.304265 1.62267e-19)
(0.564658 0.438839 1.72832e-19)
(0.575065 0.494479 -2.72117e-19)
(0.557505 0.531879 2.22952e-19)
(0.518298 0.470461 -9.10722e-20)
(0.471042 0.399006 2.07481e-19)
(0.764573 0.268929 -7.88017e-20)
(0.732137 0.295251 0)
(0.721198 0.2487 4.01651e-21)
(0.726948 0.508736 7.92683e-20)
(0.709043 0.466181 -2.93161e-19)
(0.623376 0.501439 6.85488e-21)
(0.645399 0.469069 0)
(0.626655 0.738904 6.61893e-20)
(0.786706 0.759354 2.38927e-20)
(0.708732 0.845998 -3.151e-20)
(0.826478 0.786402 -8.44395e-21)
(0.8597 0.821266 4.56864e-21)
(0.866387 0.823581 -4.69348e-21)
(0.800115 0.612707 -9.86978e-20)
(0.867997 0.689287 7.87127e-21)
(0.929316 0.696327 0)
(0.910938 0.663928 -1.16127e-20)
(0.983944 0.299729 2.79483e-20)
(1.06696 0.266353 1.16174e-20)
(1.00928 0.244049 4.6996e-20)
(0.971754 0.350467 -6.34554e-20)
(1.01051 0.405961 0)
(1.04603 0.39149 0)
(0.888426 0.34597 2.45894e-21)
(0.821323 0.290327 0)
(0.844969 0.281134 8.39011e-20)
(0.884439 0.279561 -3.8418e-21)
(0.905864 0.407808 3.32491e-19)
(0.860651 0.460218 8.56189e-20)
(0.869666 0.429811 -1.07478e-19)
(0.805736 0.413954 1.15175e-19)
(0.794379 0.41587 7.77085e-20)
(0.765433 0.407283 -7.56994e-20)
(1.02775 -0.00530053 1.00701e-19)
(1.01976 -0.00156903 0)
(1.0182 -0.000644489 6.79108e-20)
(1.02174 -0.00221446 -1.52525e-19)
(1.02189 0.00287822 7.37899e-20)
(1.02076 0.0103512 -1.55587e-19)
(1.02213 0.00960323 0)
(1.02165 0.00999867 -3.25104e-20)
(1.01684 0.00687111 8.14934e-20)
(1.01718 0.00996488 -4.14745e-20)
(1.01775 0.00887984 3.03307e-20)
(-0.241313 1.2811 0)
(-0.347774 1.46466 0)
(-0.175241 1.12895 0)
(-0.159607 1.11955 0)
(-0.00873317 1.3542 -5.15338e-19)
(0.204169 1.18316 1.82391e-19)
(0.246243 1.68844 1.21844e-19)
(0.270286 1.28501 -7.84761e-20)
(-0.354944 1.5359 2.42461e-19)
(-0.343015 1.53069 -1.83503e-19)
(-0.142414 1.2503 4.25168e-20)
(-0.164302 1.25998 2.63232e-19)
(-0.229035 1.28567 3.13972e-20)
(-0.328177 1.40566 2.56362e-20)
(0.0243591 2.59911 1.42126e-19)
(0.125945 2.61088 0)
(0.25237 2.2534 -2.10095e-20)
(0.239245 1.83895 -6.60964e-20)
(0.329727 2.10679 1.12314e-20)
(0.267711 2.47335 0)
(0.293456 2.41397 -7.88458e-20)
(0.368033 2.40327 5.52092e-20)
(0.286612 2.08168 3.92509e-20)
(0.237271 2.2996 9.86933e-21)
(0.187223 2.45192 0)
(-0.430056 2.16991 1.59197e-19)
(-0.357546 2.274 4.66606e-20)
(-0.419965 2.15911 0)
(-0.332893 2.44166 3.7106e-21)
(-0.377966 2.39859 -7.85189e-20)
(-0.229049 1.66751 -1.10708e-21)
(-0.153381 1.69008 2.32212e-20)
(-0.153863 1.73766 -7.8075e-21)
(-0.241854 1.73969 -6.7381e-21)
(-0.308129 1.70325 0)
(-0.127445 1.74012 0)
(-0.0406761 1.74371 4.61744e-21)
(-0.0694101 1.76855 -1.2281e-21)
(-0.0905641 1.74964 0)
(-0.0575467 1.69531 3.13894e-21)
(-0.0293418 1.70031 -6.82802e-21)
(1.03586 0.000414495 0)
(1.04392 0.00528367 -1.00874e-20)
(1.04706 0.0166683 -7.24706e-20)
(1.04672 0.0175212 0)
(1.04744 0.0181593 0)
(1.04578 0.00558861 -2.63395e-21)
(1.03991 0.00393716 1.20486e-19)
(1.04225 0.0120252 1.46536e-19)
(1.0323 0.0166332 0)
(1.03175 0.0151208 0)
(1.0431 0.0189958 7.35455e-20)
(1.03363 0.0144858 0)
(1.03345 0.0138547 0)
(-0.0777404 1.84551 0)
(-0.0521754 1.81665 1.0636e-21)
(-0.0598625 1.84032 3.65886e-21)
(-0.0517032 1.77274 0)
(-0.0640257 1.80816 2.74793e-21)
(-0.0497346 1.79847 -2.57401e-21)
(-0.0473653 1.79259 0)
(0.364179 1.72417 0)
(0.346107 1.33451 2.40638e-19)
(0.292196 1.38735 0)
(0.429425 1.2798 -3.15916e-19)
(0.484203 1.41881 0)
(0.437352 1.3879 1.53504e-19)
(1.01655 2.69771 -2.03083e-21)
(0.934975 2.40367 -1.25932e-19)
(0.854038 2.13245 1.83698e-19)
(0.832115 2.35695 5.62308e-20)
(0.842428 2.52895 0)
(0.900617 2.51292 0)
(0.861737 2.37008 0)
(0.891004 2.31477 -1.9582e-19)
(0.679881 2.50816 -1.44682e-20)
(0.811873 2.50342 -6.14122e-21)
(0.817499 2.47076 4.86441e-21)
(0.671445 2.35179 0)
(0.775379 2.35922 0)
(0.736605 2.35796 -9.70121e-20)
(0.758308 2.51963 0)
(0.571616 1.08772 0)
(0.471192 0.919765 -1.98941e-21)
(0.528345 0.940957 -1.0004e-21)
(0.496888 1.04446 0)
(0.504316 1.00558 3.97335e-21)
(0.729833 0.874754 3.90536e-21)
(0.75368 0.994586 0)
(0.724238 0.943442 -2.04682e-20)
(0.593911 1.03116 0)
(0.611478 0.93051 0)
(1.15269 2.77281 1.35741e-20)
(1.12935 2.84044 4.30604e-20)
(0.929482 2.36456 -1.02143e-19)
(0.888851 2.33715 8.60226e-21)
(1.1137 2.73686 0)
(1.0648 2.70457 -1.06468e-20)
(1.06789 2.47625 -4.20161e-20)
(0.961415 2.20983 -1.31023e-20)
(0.488768 1.36517 0)
(0.479799 1.06386 2.8814e-20)
(0.545487 1.1324 0)
(0.858811 0.209116 0)
(0.819797 0.165826 0)
(0.779547 0.153469 0)
(0.845519 0.21886 -1.32539e-19)
(0.787377 0.218636 8.27696e-20)
(0.939961 0.0516971 -7.58029e-20)
(0.947722 0.100116 0)
(0.922583 0.101585 3.3858e-20)
(0.889503 0.0813706 1.38917e-19)
(0.885015 0.0487493 -8.58327e-20)
(1.17433 3.38287 -4.16446e-19)
(1.2249 3.29896 0)
(1.14259 3.39977 -7.90172e-19)
(0.642688 3.55762 6.96487e-19)
(0.856644 3.11794 1.45681e-19)
(0.491847 0.880558 9.5367e-20)
(0.41531 0.864478 0)
(0.342676 0.576763 -3.43543e-20)
(0.432381 0.696754 1.57518e-19)
(0.536223 0.54838 -4.72243e-20)
(0.519346 0.569035 5.32489e-20)
(0.64374 0.541646 1.14139e-19)
(0.676863 0.536296 0)
(0.620649 0.63291 0)
(0.580302 0.565907 0)
(0.92599 0.573386 -1.56574e-20)
(0.859634 0.509767 -8.22584e-20)
(0.881138 0.541469 4.41223e-20)
(0.921288 0.488312 -6.06648e-20)
(1.01711 0.471424 0)
(1.0173 0.541307 -5.23069e-21)
(0.827484 0.377782 -1.70423e-19)
(0.828638 0.364513 -1.9551e-19)
(0.786919 0.373429 1.3314e-19)
(0.775617 0.350735 -1.48258e-19)
(0.821711 0.311079 -1.11905e-19)
(0.779136 0.308621 1.37611e-19)
(1.02724 0.00257582 -7.73637e-20)
(1.02816 0.00122579 1.5992e-19)
(1.02806 -0.0059021 9.5796e-20)
(1.03229 -0.00842143 -1.1709e-19)
(1.03743 -0.00209629 0)
(1.03493 -0.000269371 -1.90102e-19)
(-0.24842 2.02021 -5.2051e-20)
(-0.240535 1.80792 0)
(0.047711 1.87588 -4.1203e-19)
(0.146538 1.85921 3.65947e-19)
(0.182501 1.68151 -2.27044e-19)
(-0.0174541 1.69304 0)
(-0.13688 1.84583 0)
(-0.121375 1.77921 -9.26363e-22)
(-0.0883503 1.7803 8.33229e-22)
(-0.0781722 1.80468 2.03933e-21)
(-0.0905432 1.84845 -4.31126e-21)
(-0.102455 1.84684 3.2788e-21)
(0.495598 1.37735 1.6462e-19)
(0.500672 1.38836 -1.73637e-19)
(0.449302 1.27802 1.63528e-19)
(0.421367 1.29144 -1.03863e-20)
(0.612558 1.29373 0)
(0.548213 1.37296 2.11725e-19)
(0.561174 1.35982 -2.04974e-19)
(0.466187 1.25879 -1.59573e-19)
(0.507072 1.21916 0)
(0.550653 1.18329 0)
(0.630415 2.45812 2.17458e-20)
(0.673347 2.48295 2.29216e-19)
(0.702941 2.49864 -1.56592e-19)
(0.606121 2.48758 -5.02066e-20)
(0.546452 2.57566 5.32616e-20)
(0.536523 2.55156 -1.47314e-19)
(0.952192 2.35008 -9.99628e-20)
(0.993942 2.37585 0)
(0.881641 2.11918 -1.28833e-19)
(1.03398 2.68636 0)
(1.03232 2.67112 0)
(0.618771 2.27582 7.86397e-20)
(1.02613 3.16949 1.88126e-19)
(0.895044 3.03101 -1.42736e-19)
(0.300528 0.973094 0)
(0.353688 0.831202 -6.50707e-20)
(0.48117 0.782049 -2.83388e-20)
(0.428408 2.01589 0)
(0.483115 2.79485 -1.03125e-19)
(0.446963 2.58106 0)
(0.638766 0.676258 -1.36565e-19)
(0.711313 0.664297 1.73089e-19)
(0.748776 0.60149 -1.68308e-19)
(0.638618 0.643686 -2.0126e-20)
(0.692812 0.591721 -8.17228e-20)
(1.01005 2.77871 -1.42064e-19)
(1.03584 2.84917 1.27358e-19)
(0.671694 2.19283 3.7195e-20)
(0.587071 1.74099 -3.57154e-20)
(0.704828 1.93957 4.26387e-20)
(0.988096 2.48581 -2.4752e-20)
(0.990498 2.4894 -7.78297e-20)
(0.684701 1.9193 -3.20321e-21)
(0.45267 1.36036 -2.82223e-20)
)
;

boundaryField
{
    wall-4
    {
        type            noSlip;
    }
    velocity-inlet-5
    {
        type            fixedValue;
        value           uniform (1 0 0);
    }
    velocity-inlet-6
    {
        type            fixedValue;
        value           uniform (0 3 0);
    }
    pressure-outlet-7
    {
        type            zeroGradient;
    }
    wall-8
    {
        type            noSlip;
    }
    frontAndBackPlanes
    {
        type            empty;
    }
}


// ************************************************************************* //
