/*--------------------------------*- C++ -*----------------------------------*\
| =========                 |                                                 |
| \\      /  F ield         | OpenFOAM: The Open Source CFD Toolbox           |
|  \\    /   O peration     | Version:  4.0                                   |
|   \\  /    A nd           | Web:      www.OpenFOAM.org                      |
|    \\/     M anipulation  |                                                 |
\*---------------------------------------------------------------------------*/
FoamFile
{
    version     2.0;
    format      ascii;
    class       volScalarField;
    location    "38";
    object      p;
}
// * * * * * * * * * * * * * * * * * * * * * * * * * * * * * * * * * * * * * //

dimensions      [0 2 -2 0 0 0 0];

internalField   nonuniform List<scalar> 
918
(
0.597644
1.24932
0.00588789
0.596991
-0.00460969
1.21638
-0.457907
0.759851
0.577795
-0.0507621
0.00947856
0.573154
1.07684
0.843187
-1.08547
0.0325658
0.710221
-0.336337
0.576822
0.0237094
0.796378
0.584376
0.587407
0.577993
0.641116
0.824187
0.957638
0.0159531
0.000834766
-0.00311134
0.00635525
-0.0166475
0.00458192
1.10003
1.15112
1.17379
0.546055
0.3713
-0.319966
-0.389021
-0.380022
-0.504169
0.752531
0.75388
-0.132434
0.761431
0.770466
0.564971
0.577157
0.578049
0.579135
0.578087
0.57948
0.45392
-0.0554179
-0.0873444
-0.0312746
-0.0208098
0.100436
0.0110735
0.0108943
0.0147475
0.013391
0.496884
0.568869
0.566097
0.578206
0.586677
1.18887
1.16079
1.18693
1.10056
1.1171
1.05483
1.02746
0.863685
0.885265
0.828447
0.817524
-1.5236
-2.48657
-0.489294
-0.234875
-0.000116538
0.0347036
0.045265
0.701368
0.699499
0.711552
0.723455
1.12492
-0.331225
-0.448567
0.576942
0.575737
0.584133
0.584829
0.580842
0.579936
0.0276039
0.027433
0.0173116
0.0206247
0.0206156
0.785688
0.783704
0.578533
0.575551
0.594029
0.614829
0.606785
0.328123
0.644978
0.657034
0.646453
0.814351
0.808342
0.817193
0.931086
0.894514
0.994978
1.0181
0.0127711
0.00383203
0.0255059
0.00767476
0.0148952
0.541989
0.53474
0.560987
0.54941
0.551851
0.287124
0.152267
0.456691
0.481712
-0.23214
-0.293076
-0.388481
-0.41065
-0.516589
0.644861
0.74317
0.742329
-0.152339
-0.0755695
-0.207641
-0.00289118
-0.0625656
0.555375
0.562282
0.557334
0.572742
0.56724
0.569191
0.581394
0.578467
0.580027
0.517445
0.641633
0.380082
0.344918
-0.197094
-0.106234
-0.199415
-0.00853124
-0.00399827
0.119112
0.144763
0.0905954
0.0834957
0.00372169
0.00994211
0.00827751
0.0143532
0.017665
0.490086
0.479441
0.509157
0.516523
0.559168
0.560321
0.56355
0.562053
0.978256
1.00049
1.00814
0.982011
-3.48832
-6.29267
0.0946657
0.233572
0.00673904
0.00934238
0.00470014
0.0163197
0.00814687
0.00348687
0.0609536
0.0501031
0.0421995
0.0531342
0.686521
0.686004
1.04343
1.04362
1.02551
0.975392
0.565017
0.567143
0.572707
0.568553
0.0210473
0.026926
0.0263624
0.771398
0.779431
0.777803
0.291254
0.204407
0.377011
0.404804
0.674534
0.660768
0.672354
0.707107
0.743947
1.02547
1.04376
1.04202
1.05052
1.09461
1.11107
1.07632
0.5221
0.531712
0.526844
0.56419
0.56189
0.56284
0.558338
0.559808
0.557598
0.000258641
-0.383371
0.532064
0.550021
0.530309
0.536646
0.724609
0.801326
0.724261
0.734226
0.732342
0.0624834
0.00577524
0.302076
0.269833
0.43184
0.467004
0.446675
0.949323
0.909988
0.959995
0.933283
0.894827
0.920192
-0.334908
-1.84901
-0.959879
0.5886
0.399649
0.488056
0.0631433
0.0582331
0.0496797
1.03814
1.11599
0.697399
0.865882
0.873512
0.783113
0.813388
0.867601
0.793775
0.827912
0.862682
0.844043
0.601015
0.544586
0.55562
0.871106
0.927138
0.177974
0.122844
0.0781088
0.162162
0.221394
0.192346
1.07936
0.983272
1.05499
0.575302
0.576001
0.0241518
0.0354591
0.580156
0.580205
0.0042691
0.00962068
0.470999
-0.795222
0.166142
0.568637
0.558834
0.575806
-0.0338877
0.41028
0.0121119
0.105397
0.0542539
0.571133
0.507335
0.468084
0.0387738
0.0296008
0.022494
-0.161389
0.572972
0.571283
0.575266
0.576243
0.576904
0.030574
0.0307215
0.0280348
0.0284026
0.0287588
0.0273839
0.540353
0.557886
-0.116623
0.575399
0.577522
0.577339
0.570518
0.576204
0.574414
0.0415187
0.0120033
0.0233938
0.275274
0.397971
0.717801
0.811892
0.684516
0.457321
0.218631
0.617305
0.683021
0.585485
0.743649
0.735999
0.754729
0.23026
0.0825685
0.23815
0.179237
0.566504
0.565164
0.557096
0.55418
0.570647
0.568759
0.573323
0.570306
0.573275
0.57467
0.00539019
-0.0168304
-0.0303931
-0.0931639
0.366503
0.627352
0.304359
0.334579
0.196724
0.0148389
0.0162834
0.0145016
0.00950856
0.0536505
0.0379729
0.0974823
0.0993971
0.0745338
0.0526463
0.0457693
0.0386386
0.0357504
0.564544
0.562791
0.569263
0.577865
0.516651
0.520408
0.486565
0.506424
0.492374
0.433096
0.467469
0.443063
0.0258452
0.0449719
0.0189522
0.029685
0.0281802
0.0415666
0.0377336
0.0369231
0.0360128
0.0336799
0.0265977
0.0260926
-0.121143
-0.235248
1.03066
0.965303
0.175669
0.562157
0.568584
0.565366
0.570168
0.5733
0.574142
0.571891
0.568466
0.558417
0.56015
0.55665
0.557334
-0.0543893
-0.189501
-0.0178215
-0.0865822
0.181169
0.666997
0.410187
0.349839
0.344527
0.56666
0.971635
0.765829
0.757073
0.778542
-0.299469
0.097382
-0.232496
0.387255
0.209022
0.714906
0.765734
0.788829
0.735459
0.686963
-0.0697408
0.591981
-0.00834894
0.0379732
0.232414
0.12144
0.75805
0.719485
0.725254
0.743276
0.762685
0.725272
0.706302
0.701998
0.738922
0.742394
0.543437
0.307599
0.261854
0.222719
0.702046
0.583421
0.640171
0.551894
0.561477
0.564233
0.562827
0.545093
0.552468
0.548164
0.554073
0.557362
0.566387
0.566749
0.56214
0.564334
0.00288843
0.00126004
0.0218583
-0.0854648
-0.0756132
-0.134954
-0.0156239
0.123679
0.0854744
0.282626
0.387591
0.100743
-0.0147717
0.0149619
0.0484162
0.227125
0.252127
0.125851
0.215402
0.200715
0.186457
0.288202
0.294311
0.0283436
0.0224035
0.0251433
0.0227679
0.0755164
0.145567
0.155638
0.0491696
0.0428575
0.0167774
0.014108
0.0282505
0.0275709
0.0283078
0.0667545
-0.0237321
0.0256536
0.0489093
0.0534743
0.0472568
0.0433505
0.557372
0.559279
0.559137
0.567129
0.583941
0.599524
0.558089
0.538345
0.529296
0.532277
0.505911
0.515905
0.51157
0.525085
0.545253
0.5543
0.552257
0.554865
0.537957
0.539452
0.526322
0.530189
0.506003
0.487889
0.476377
0.0216532
0.0562781
0.0611543
0.0179801
0.0517125
0.03549
0.0465571
0.0630609
0.0459358
0.0383175
0.0345142
0.0383849
0.0396024
-0.0276632
0.052918
-0.138048
-0.171952
-0.243724
0.934934
1.05517
0.857935
0.633898
0.64847
0.887135
0.973146
0.595805
0.781624
0.805163
0.617962
0.887059
0.566972
0.56658
0.564177
0.563661
0.564902
0.0343995
0.135576
0.144193
0.198717
0.312803
0.425913
0.350047
0.228452
0.361475
0.365356
0.66225
0.677162
0.627695
0.65035
0.648827
0.475202
0.55369
0.607647
0.560921
0.608253
0.630638
0.590789
0.621446
0.567631
0.523495
0.521109
0.469315
0.49098
0.468492
0.450044
0.556594
0.534439
0.54452
0.535562
0.555072
0.579511
0.575672
0.605941
0.617136
0.539431
0.497712
0.507611
0.536305
0.497494
0.511568
0.527255
0.263253
0.162078
0.247491
-0.0434252
0.0372311
0.0222779
-0.0248731
0.0205431
0.306252
-0.391242
-0.364112
-0.996793
0.531341
1.00175
0.711023
0.683835
0.758693
0.73734
0.740789
0.76403
0.77042
0.692066
0.710503
0.713632
0.672004
0.695275
0.718931
0.716259
0.565049
0.43759
0.430166
0.388
0.261294
0.296084
0.498203
0.420486
0.346322
0.349168
0.511785
0.399687
0.466168
0.505046
0.436859
0.391871
0.596301
0.661807
0.651702
0.626221
0.544022
0.557953
0.582887
0.618698
0.645682
0.677824
0.553805
0.559622
0.560889
0.558376
0.555599
0.55852
0.558654
0.561184
0.56199
0.564921
0.563917
0.0134958
0.0251235
0.0132626
0.00525373
0.032068
0.0269136
0.0718998
0.0585694
0.0441665
0.0508056
0.0245949
0.0206487
0.0268878
0.0354398
0.145974
0.159562
0.144009
0.104622
0.294712
0.42604
0.496396
0.373555
0.267109
0.290492
0.313745
0.0369437
0.0658905
0.0510169
0.0932456
0.084148
0.024404
0.0240124
0.0249742
0.0262251
0.0372258
0.0209617
0.0274917
0.0331019
0.022884
0.0227625
0.0254426
0.540536
0.53404
0.535364
0.529401
0.52828
0.542118
0.546398
0.548213
0.553548
0.555545
0.546047
0.551514
0.555066
0.0463098
0.0316093
0.0175862
0.0399317
0.0392618
0.0395633
0.0384071
0.163759
0.093353
0.099409
0.0517497
-0.0768098
-0.0188618
0.525475
0.522228
0.51782
0.756196
0.606891
0.525055
0.620357
0.726939
0.313502
0.51204
0.345422
0.92658
0.819759
0.965915
0.582423
0.277811
0.432804
0.483613
0.291678
0.363952
0.369833
0.258225
0.290041
0.322078
0.423159
0.299705
0.274124
0.0321675
0.21995
0.336802
0.3178
0.445712
0.50778
0.297212
0.2168
0.172817
0.65397
0.67314
0.692534
0.662806
0.687125
0.616093
0.605319
0.623111
0.631476
0.6278
-0.725034
-0.433001
-1.37664
-0.691258
-0.241492
0.561232
0.52422
0.80461
0.690684
0.754321
0.739063
0.697497
0.663459
0.676908
0.708799
0.405168
0.516513
0.490675
0.496576
0.397295
0.330119
0.631161
0.625098
0.66129
0.685344
0.652407
0.685454
0.551567
0.55119
0.550907
0.547311
0.545566
0.547732
0.109556
0.0789465
0.113764
0.0938063
0.0715956
0.0605548
0.0496056
0.0428112
0.0392558
0.0373226
0.04361
0.0452938
0.203971
0.146165
0.0697496
0.100236
0.0380154
-0.0285989
-0.0471912
0.0548001
0.1476
0.137846
0.445069
0.696336
0.517498
0.68641
0.526348
0.581854
0.508328
0.500834
0.527767
0.415055
0.495148
0.261116
-0.242699
-0.15104
0.819483
0.837529
0.618993
0.433397
0.204384
0.393289
0.590738
0.526187
0.564812
0.633733
0.625434
0.0462704
0.112993
0.372992
0.60053
0.267977
0.260269
0.254868
0.429232
0.353722
)
;

boundaryField
{
    wall-4
    {
        type            zeroGradient;
    }
    velocity-inlet-5
    {
        type            zeroGradient;
    }
    velocity-inlet-6
    {
        type            zeroGradient;
    }
    pressure-outlet-7
    {
        type            fixedValue;
        value           uniform 0;
    }
    wall-8
    {
        type            zeroGradient;
    }
    frontAndBackPlanes
    {
        type            empty;
    }
}


// ************************************************************************* //
