/*--------------------------------*- C++ -*----------------------------------*\
| =========                 |                                                 |
| \\      /  F ield         | OpenFOAM: The Open Source CFD Toolbox           |
|  \\    /   O peration     | Version:  4.0                                   |
|   \\  /    A nd           | Web:      www.OpenFOAM.org                      |
|    \\/     M anipulation  |                                                 |
\*---------------------------------------------------------------------------*/
FoamFile
{
    version     2.0;
    format      ascii;
    class       volVectorField;
    location    "38";
    object      U;
}
// * * * * * * * * * * * * * * * * * * * * * * * * * * * * * * * * * * * * * //

dimensions      [0 1 -1 0 0 0 0];

internalField   nonuniform List<vector> 
918
(
(0.985164 -0.000501063 0)
(0.00501256 2.96625 0)
(-0.00834594 0.798188 0)
(0.979703 0.00214822 0)
(-0.055909 1.9579 1.54676e-20)
(-0.00704423 2.94879 -2.60733e-18)
(0.828515 1.1698 4.03064e-19)
(0.294249 0.136769 -1.68779e-20)
(0.999909 -0.000281238 0)
(0.0575946 0.81902 0)
(0.0126472 0.626467 0)
(0.73471 -0.0135703 0)
(0.0111054 2.9304 0)
(0.00218709 2.79504 0)
(-0.017654 3.15663 7.41457e-19)
(-0.00170308 1.86184 -3.15999e-20)
(0.363215 0.0385282 1.10903e-18)
(0.190521 1.17898 2.71664e-19)
(0.962778 0.00501605 0)
(0.00752399 0.61586 0)
(0.0682659 0.182965 -7.98144e-19)
(1.00198 -0.00498138 0)
(1.00022 -0.00979272 0)
(0.975725 -0.00644265 0)
(0.585728 -0.0365641 0)
(0.0161043 2.63878 0)
(-0.0150018 2.91008 9.68807e-19)
(-0.00409033 0.864781 0)
(0.0019825 1.0446 0)
(-0.00393338 0.839701 0)
(-0.0484079 2.58958 0)
(-0.0267706 2.05735 -1.23252e-20)
(-0.023929 1.79733 0)
(-0.0206094 2.9876 -9.41375e-23)
(-0.0166903 3.00529 2.0264e-18)
(0.00209874 3.00018 0)
(0.870668 -0.00938756 0)
(0.403337 0.936843 2.04493e-19)
(0.807956 1.18685 -4.20774e-19)
(0.954231 1.02493 4.782e-19)
(0.678549 1.28014 -9.25294e-20)
(0.677718 1.26529 5.43168e-19)
(0.335717 0.220379 1.64659e-20)
(0.309533 0.107136 0)
(1.12885 0.550411 0)
(0.301204 0.213102 7.52404e-20)
(0.264762 0.142071 -7.80782e-20)
(0.919748 -0.00745966 0)
(1.00027 0.000146781 0)
(0.999909 0.000330944 0)
(1.00363 -0.00777295 0)
(1.00096 -0.000933235 0)
(1.00017 2.89997e-05 0)
(0.0805398 1.809 -8.6893e-19)
(0.0304917 0.9977 0)
(0.0877414 0.885052 0)
(0.0111656 0.949516 0)
(0.0349426 0.761205 0)
(0.023807 1.99864 0)
(0.0211015 0.820697 0)
(0.0201463 0.653958 0)
(0.00317421 0.80229 0)
(-0.00676461 0.609112 0)
(0.837731 -0.015721 0)
(0.848413 0.0282718 0)
(0.767763 -0.00301892 0)
(0.81975 0.038304 0)
(0.702965 -0.0185026 0)
(0.0146872 3.00041 9.68433e-19)
(0.0114939 3.00802 0)
(0.00611309 3.00277 0)
(0.0135345 2.99735 1.10164e-23)
(0.00797374 2.95848 -1.43933e-18)
(0.0145001 2.98207 0)
(0.0108614 2.90356 0)
(0.0244442 2.93081 2.24744e-24)
(0.0045666 2.8251 0)
(0.0305845 2.91628 0)
(-0.00515003 2.74477 0)
(0.308492 3.55358 0)
(-0.131907 3.63507 0)
(0.139649 3.24716 -6.9001e-19)
(-0.012614 2.98262 0)
(-0.0100355 2.13093 0)
(-0.0110767 2.12287 3.11661e-20)
(-0.00136926 1.87138 -3.99546e-20)
(0.457855 0.144176 -3.83704e-19)
(0.361264 0.0212102 -3.6974e-19)
(0.441698 0.164914 -1.15552e-18)
(0.348954 0.0581518 -7.62415e-19)
(0.220641 0.95442 0)
(0.272995 1.32172 -3.34571e-19)
(0.375169 1.26477 5.61973e-19)
(0.987483 0.00855728 0)
(0.941946 0.00587368 0)
(1.0003 0.000578682 0)
(1.00286 0.0093062 0)
(1.00302 0.00845947 -2.95017e-18)
(0.991913 0.00969888 2.22789e-18)
(-0.00985244 0.799046 0)
(-0.00675885 0.623755 0)
(0.0070875 0.889855 0)
(-0.0135168 0.796684 0)
(-0.0138655 0.61749 0)
(0.107869 0.18825 2.46738e-19)
(0.164555 0.165307 0)
(0.993538 -0.00838151 0)
(0.954416 -0.00651831 0)
(0.770396 0.0459159 0)
(0.706286 0.0565201 0)
(0.662856 -0.0302675 0)
(0.958952 -0.0100797 0)
(0.621964 0.0748571 0)
(0.448059 -0.0138231 1.62521e-18)
(-0.0369544 2.86273 7.43121e-19)
(0.0417585 2.90916 0)
(0.0544679 2.88525 0)
(-0.00482742 2.69937 0)
(-0.0130647 2.9853 9.2104e-19)
(-0.0179454 2.89524 0)
(-0.0153463 2.98808 -2.84801e-18)
(-0.0133401 2.92521 9.73726e-19)
(0.0655854 1.28872 0)
(0.0605841 1.35877 0)
(-0.0214334 2.07797 -7.31249e-22)
(-0.0161993 2.04359 0)
(-0.00749983 1.83614 0)
(0.937919 -0.00772565 0)
(0.856257 -0.00947776 0)
(0.863427 0.00637095 0)
(0.949132 -0.00800071 0)
(0.883616 -0.00817242 0)
(0.515608 1.13076 -2.56977e-19)
(0.565178 1.18273 0)
(0.367098 0.880521 3.70537e-20)
(0.309383 0.739586 0)
(0.913876 1.06345 -1.28504e-19)
(1.02364 0.865002 2.53595e-19)
(0.369644 1.37387 0)
(0.532651 1.34358 0)
(0.545548 1.29503 0)
(0.114575 0.180668 -3.17446e-19)
(0.369759 0.209441 0)
(0.334878 0.100578 2.1546e-19)
(0.994315 0.920488 0)
(1.05829 0.769117 0)
(1.08306 0.709632 -1.82393e-19)
(1.10935 0.611292 0)
(1.15444 0.394954 5.42893e-20)
(0.957478 -0.00880512 0)
(0.962368 -0.0101282 0)
(0.901465 -0.0079967 0)
(0.984168 -0.00917922 0)
(0.974641 -0.00939915 0)
(0.93705 -0.00635575 0)
(1.00019 0.00233785 0)
(1.00091 0.00139594 0)
(0.999911 0.000855969 0)
(0.0333227 2.0629 4.77716e-19)
(0.121737 1.75169 0)
(0.0136597 2.17951 7.54688e-19)
(0.0539551 1.86265 -6.43268e-19)
(0.10575 1.18436 -2.21578e-19)
(0.0465786 1.07061 0)
(0.14126 1.03474 0)
(0.00906409 0.900629 0)
(0.0184882 0.721201 0)
(-0.00569288 2.22564 -1.56236e-21)
(0.0288433 1.9948 0)
(-0.00552864 2.22085 -7.58192e-20)
(0.027665 1.99296 1.39349e-19)
(0.00492702 0.869426 0)
(0.0136326 0.846526 0)
(0.01715 0.68369 0)
(-0.00247519 0.803251 0)
(-0.00451786 0.606219 0)
(0.93523 0.00884908 0)
(0.844665 -0.0149366 0)
(0.925409 -0.000343576 0)
(0.839957 -0.01265 0)
(0.812219 0.00148518 0)
(0.901897 0.0197924 0)
(0.878588 0.0238396 0)
(0.788997 -0.000444558 0)
(0.00569244 3.06477 -9.11077e-21)
(0.0166698 3.05788 0)
(0.0147075 2.96906 0)
(0.00860891 2.87619 0)
(0.925666 3.97022 0)
(1.24037 3.3025 9.25425e-19)
(0.0701563 3.07466 0)
(-0.0281645 2.9058 0)
(0.0849248 1.45946 0)
(0.0290769 1.82517 0)
(0.0474887 1.68402 0)
(-0.0334302 2.54107 7.6742e-21)
(-0.0198976 2.31023 0)
(-0.0506523 2.4382 0)
(0.0272078 1.92982 3.59693e-21)
(-0.0122433 2.18893 4.86465e-20)
(-0.0076777 2.16473 4.05404e-20)
(0.0119658 1.89392 0)
(0.483985 0.120023 5.75337e-19)
(0.382 0.00429486 -5.65188e-19)
(0.260323 1.57378 0)
(0.268603 0.729883 -3.26586e-19)
(0.177573 1.65892 -1.09892e-18)
(0.22692 1.197 1.10168e-18)
(0.902252 0.00652707 0)
(0.967511 0.0110262 0)
(0.974623 0.0107801 0)
(0.923446 0.00650861 0)
(-0.0143741 0.803165 0)
(-0.0057126 0.799415 0)
(-0.0109921 0.61664 0)
(0.259393 0.210076 6.93725e-19)
(0.215665 0.196985 -8.21525e-19)
(0.224064 0.155543 0)
(1.08036 0.080618 3.2379e-20)
(1.06265 0.035665 0)
(1.00167 0.0376211 0)
(0.898579 -0.00791059 0)
(0.511678 0.0975907 0)
(0.55071 0.079998 -2.59948e-18)
(0.408043 -0.000967285 9.74203e-19)
(0.00908297 2.98116 7.86556e-19)
(-0.0326995 2.86615 4.7313e-20)
(0.00366805 3.05019 -1.92304e-20)
(0.0201764 3.04343 6.83818e-19)
(-0.0150268 2.99657 3.19184e-20)
(-0.0129586 2.94948 -1.28358e-22)
(-0.0172564 3.01194 -5.88653e-19)
(0.0148355 3.02387 4.25626e-19)
(0.00734086 3.03674 -6.75923e-19)
(0.932506 -0.00177184 0)
(0.938495 -0.00374985 0)
(0.844226 -0.00912316 0)
(0.956735 0.0116978 0)
(0.943071 0.0129492 0)
(0.88178 0.00612267 0)
(0.918209 0.0162614 0)
(0.926613 0.0146242 0)
(0.838723 0.00395872 0)
(0.719377 1.41027 1.10091e-20)
(0.753168 1.5197 0)
(0.18751 0.324589 7.6461e-20)
(0.217664 0.656095 6.17558e-19)
(0.258862 0.717319 -3.58545e-19)
(0.265124 0.533148 7.13672e-19)
(0.334671 0.787087 1.66464e-18)
(0.13246 0.220982 3.87835e-19)
(0.415999 0.185134 8.08933e-19)
(0.39528 0.201229 2.10503e-19)
(0.346557 0.0817942 4.01938e-19)
(1.14512 0.453391 1.64402e-21)
(1.15945 0.248485 -5.16824e-21)
(0.00650542 2.22741 3.00706e-19)
(0.0482377 1.92755 0)
(0.963577 0.0279978 0)
(0.938344 0.0129723 0)
(0.862235 -0.0185985 0)
(0.0111282 3.07432 0)
(0.0196803 2.94402 1.2621e-18)
(0.0164661 2.9563 0)
(0.00633781 2.85068 -1.25192e-18)
(0.00623664 3.091 3.07219e-19)
(0.00732218 3.08271 0)
(0.786366 1.82271 -1.52452e-19)
(1.24809 2.50143 3.84143e-19)
(0.768632 1.96268 -1.21618e-18)
(0.0202173 2.98145 -6.86917e-19)
(0.0361011 3.00205 0)
(-0.0335408 2.87874 0)
(-0.00904124 2.19764 -1.44292e-20)
(-0.0116261 2.1994 -9.9854e-20)
(0.0293508 1.97456 -2.1146e-21)
(0.27476 1.3805 1.06406e-18)
(0.22579 0.516867 -7.29663e-19)
(0.0628628 1.98763 8.15484e-19)
(0.136381 1.87596 -9.63076e-19)
(0.180364 1.49132 9.17583e-20)
(0.00233352 3.11848 -1.93133e-18)
(0.0169028 3.11786 2.06815e-18)
(-0.00899362 2.98109 8.52777e-19)
(-0.0032365 2.9775 -8.11857e-19)
(-0.0212009 2.88157 -8.68529e-19)
(0.00868001 3.09943 -2.28921e-18)
(0.00229151 3.10648 2.23289e-18)
(0.273524 0.680375 0)
(0.237026 0.670245 -1.2736e-18)
(0.0957449 0.221645 5.64285e-19)
(0.349149 0.912756 1.15201e-18)
(0.187773 0.26544 -1.77684e-18)
(1.15903 0.167943 8.68382e-20)
(1.16188 0.302578 0)
(1.14586 0.116781 -3.46819e-20)
(-0.00256741 2.24102 -2.20924e-21)
(0.000302042 2.2346 0)
(0.0346294 1.96605 0)
(0.339079 1.28947 -3.83301e-19)
(0.367397 1.12421 -8.27322e-19)
(0.201265 0.362906 1.47521e-18)
(1.00587 -0.0108647 0)
(1.00766 -0.007654 5.44724e-19)
(0.0454142 1.26929 0)
(0.00633023 1.19646 0)
(1.00222 0.00350719 1.80626e-21)
(1.00366 0.00944677 1.11131e-18)
(-0.0382703 2.54377 -9.56163e-21)
(-0.0340101 2.57583 0)
(0.036443 3.17911 4.67703e-19)
(0.395598 3.49221 0)
(1.14447 0.65197 -8.62411e-20)
(1.01292 0.0130599 -2.14172e-21)
(1.02126 -0.0104118 0)
(1.00168 0.00010084 7.10154e-23)
(0.0991027 1.35519 0)
(0.148169 2.57892 0)
(0.0231902 1.29589 0)
(0.000370125 2.63223 7.85919e-20)
(-0.0223261 2.58714 5.00878e-20)
(1.00196 0.028064 2.46838e-21)
(1.06144 0.00334863 0)
(1.09433 0.0226442 0)
(0.0173186 1.85125 0)
(-0.0278108 2.58242 0)
(0.0281306 1.27522 0)
(0.291364 1.46874 -1.23879e-19)
(1.01126 -0.00965924 0)
(1.00939 -0.0149364 0)
(1.00235 0.000705985 6.95744e-19)
(1.00548 -0.00483231 -8.18106e-19)
(1.00119 -0.00098801 0)
(0.0400981 1.55412 0)
(0.0553127 1.37254 0)
(0.0585252 1.48662 0)
(0.0402368 1.26065 0)
(0.0169479 1.18718 0)
(0.00731655 1.15923 0)
(1.03444 -0.00647713 0)
(1.02062 0.0156917 -9.13569e-22)
(0.797099 1.26518 2.13825e-19)
(1.00226 0.000254698 -6.94478e-19)
(1.00406 0.00524773 8.11364e-19)
(1.00118 0.00205807 0)
(1.01285 0.0102621 6.90423e-19)
(1.00802 0.00828023 -8.35585e-19)
(1.00858 0.0146682 0)
(-0.0313216 2.60574 0)
(-0.0323303 2.58748 2.14054e-20)
(-0.0321329 2.59846 -1.417e-20)
(1.22305 0.252368 7.00156e-19)
(1.15518 0.0817571 0)
(0.0447495 3.07735 -1.00953e-18)
(0.0658599 2.85367 -7.32474e-20)
(0.142514 3.1934 1.5327e-18)
(0.137445 3.22239 -2.3703e-19)
(0.135624 3.23495 0)
(0.0205116 3.13763 2.63014e-19)
(0.0771357 3.16069 9.96803e-19)
(0.0698515 3.18671 -4.95042e-19)
(0.0230613 3.12965 0)
(0.649564 0.295858 0)
(0.571788 0.345744 0)
(1.11262 0.685964 2.20513e-19)
(1.10876 0.814054 -2.32641e-19)
(1.17301 0.570946 0)
(1.20346 0.508025 0)
(1.01615 0.013295 -1.28762e-18)
(1.01499 0.0142637 1.61634e-18)
(1.02518 -0.00995948 0)
(1.02323 -0.0119758 0)
(1.00646 0.00255589 0)
(1.01044 0.00369306 0)
(1.00463 0.00181373 0)
(1.0098 0.0061585 0)
(1.00781 0.00595243 0)
(1.00453 0.00463734 0)
(0.0879009 1.35149 0)
(0.0824835 1.32586 0)
(0.119507 1.38813 0)
(0.13146 1.39976 0)
(0.147078 2.60313 0)
(0.187377 2.66979 -4.64495e-19)
(0.102021 2.66122 0)
(0.0878612 2.66481 2.3699e-19)
(0.0399493 2.68709 -2.18894e-19)
(0.0255457 1.31704 0)
(0.024065 1.24208 0)
(0.0353231 1.32163 0)
(0.0283947 1.26237 0)
(-0.000838833 1.98734 -3.91256e-20)
(-0.0237422 2.61489 3.4991e-20)
(-0.0118394 2.67537 7.18695e-20)
(-0.019562 2.6894 0)
(-0.0271666 2.61985 -1.15389e-19)
(-0.0275434 2.61303 -6.18294e-20)
(0.00899988 1.98722 3.15753e-20)
(-0.0139984 2.41208 -4.69439e-20)
(-0.0173928 2.4308 -8.14893e-20)
(1.01122 0.0362173 1.31032e-18)
(1.00769 0.0165918 -1.61963e-18)
(1.00319 0.0421921 -1.31191e-18)
(0.982107 0.021847 1.67033e-18)
(1.06265 0.00715925 0)
(1.0482 -0.00887479 0)
(1.09133 0.0326733 0)
(1.0724 0.0114863 0)
(1.07013 -0.00133727 0)
(1.1366 0.0782801 0)
(1.1081 0.0417065 0)
(1.11088 0.0296748 0)
(-0.0411771 2.44677 -6.49439e-21)
(0.00489518 2.06171 0)
(-0.0217878 2.25717 0)
(-0.0295151 2.60299 1.6309e-20)
(-0.0254311 2.61487 -7.98251e-22)
(0.011478 1.61782 4.54303e-20)
(0.0303593 1.57873 -4.59034e-20)
(0.0330853 1.40158 0)
(0.0430496 1.41544 0)
(0.0276709 1.42099 0)
(0.0139689 1.29118 0)
(0.00621763 1.20148 0)
(0.379024 1.4835 1.89413e-19)
(0.417691 1.4886 1.18204e-19)
(0.59671 2.44784 -2.48655e-19)
(0.402946 2.54348 7.37461e-19)
(0.353421 2.0665 8.70468e-20)
(1.02096 -0.00823124 0)
(1.01545 -0.00980893 0)
(1.01489 -0.0155319 0)
(1.00746 -0.00120763 0)
(1.00491 -0.000971226 0)
(1.00776 -0.00477342 0)
(1.00924 -0.00372571 0)
(1.01415 -0.0045022 0)
(1.02133 0.0160092 1.26124e-18)
(1.01809 0.0157312 -1.61672e-18)
(1.02179 0.0179554 -1.27007e-18)
(1.0197 0.0166807 1.58968e-18)
(0.76436 1.31377 0)
(0.699788 1.36664 1.89116e-19)
(0.873008 1.21017 4.90563e-20)
(0.915614 1.16369 -6.5237e-20)
(1.15605 2.60864 3.66505e-19)
(0.807247 0.104731 6.37397e-19)
(1.15775 0.101085 0)
(1.20216 0.182351 -5.62269e-19)
(1.18559 0.146951 -2.37854e-20)
(1.00389 0.14389 0)
(0.137008 2.96129 5.99042e-19)
(0.114183 2.867 -1.27558e-18)
(0.0249233 2.37141 8.61035e-19)
(0.091821 -0.0126513 -3.8685e-19)
(0.340337 3.42119 -1.83385e-19)
(0.19457 3.31371 0)
(0.237303 3.35595 2.38829e-19)
(0.245958 3.03461 -1.94775e-18)
(0.34075 3.19392 0)
(0.00604329 3.12103 5.05304e-20)
(0.0160568 3.12981 -5.93262e-19)
(0.0143695 3.12584 8.73165e-19)
(0.0357737 3.14011 0)
(0.0343616 3.15066 0)
(1.21533 2.60826 0)
(0.536115 0.838246 -5.63735e-19)
(1.0367 0.988159 3.46075e-20)
(0.973306 1.06364 0)
(0.822988 0.965738 -1.34818e-19)
(1.06 0.878841 2.89687e-20)
(0.367825 0.399419 -9.94925e-19)
(0.694574 0.320747 -2.22561e-20)
(0.659931 0.237929 4.56534e-19)
(0.589796 0.376076 3.37369e-20)
(0.506249 0.347362 -1.35852e-18)
(0.664215 0.339207 0)
(0.703002 0.424458 7.74582e-19)
(0.711233 0.42128 0)
(0.624426 0.368663 0)
(0.598156 0.292388 0)
(0.797863 0.615981 4.64252e-19)
(1.22117 0.275274 -5.92401e-19)
(1.21538 0.413347 0)
(1.22697 0.354689 0)
(0.74484 0.187917 6.78461e-19)
(0.844554 0.535646 -4.23623e-19)
(0.7443 0.508874 7.50993e-19)
(0.947728 0.423041 -8.32319e-19)
(1.01975 0.0146619 8.67086e-19)
(1.01787 0.0142002 -8.72213e-19)
(1.01594 0.0155975 0)
(1.03588 -0.00603177 0)
(1.02955 -0.00863658 -8.18752e-19)
(1.02749 -0.0121622 8.10756e-19)
(1.02508 0.00972456 0)
(1.02365 0.0133862 0)
(1.01142 0.0040568 0)
(1.01429 0.00898181 0)
(1.01512 0.00392499 0)
(1.01422 0.0027384 0)
(0.0584052 1.3351 0)
(0.0631555 1.2951 0)
(0.143555 1.36096 -4.40762e-20)
(0.268088 1.46564 6.07963e-20)
(0.16054 1.43657 1.24507e-19)
(0.190747 1.44455 -2.04907e-19)
(0.163535 1.38513 0)
(0.131945 1.59143 -1.24201e-19)
(0.115567 1.56265 0)
(0.352858 2.01982 -1.26533e-19)
(0.347967 2.35199 6.75336e-19)
(0.188248 1.44668 1.08284e-19)
(0.26124 1.38001 8.02452e-22)
(0.199799 1.36584 -6.50604e-22)
(0.273736 1.32164 -1.53389e-19)
(0.241507 1.57537 0)
(0.262219 1.6158 1.51686e-19)
(0.0346932 2.27094 -5.20479e-20)
(0.0427622 2.67707 0)
(0.06685 2.40884 1.84227e-19)
(0.0605477 2.43038 0)
(0.070988 2.67829 -2.62334e-19)
(0.0505347 2.70654 0)
(0.0284511 1.40442 -2.5639e-20)
(0.0360042 1.45605 0)
(0.0326228 1.37258 0)
(0.0252585 1.37509 2.89293e-20)
(-0.00130709 2.66089 -1.98368e-20)
(0.0284838 2.70622 2.53416e-19)
(0.0108041 2.73005 1.76121e-21)
(-0.00105113 1.83622 3.8419e-20)
(-0.00793229 1.67925 1.66442e-20)
(0.0252359 1.29174 0)
(0.00219453 1.22058 0)
(0.0493104 1.56654 4.25903e-20)
(0.0302606 1.43895 3.97393e-20)
(0.0382312 1.50486 -4.88103e-20)
(0.0412884 1.59148 0)
(-0.0366227 2.28511 1.27497e-21)
(-0.0425152 2.55481 -2.59982e-21)
(-0.0216761 2.45327 -1.08661e-20)
(-0.0153325 1.85241 -4.6547e-20)
(-0.0323253 2.50579 -1.65815e-20)
(-0.0266523 2.44995 7.97504e-20)
(1.01977 0.0206343 -8.61927e-19)
(1.01602 0.0261806 8.65208e-19)
(1.0152 0.0162043 0)
(1.01119 0.0675631 1.21644e-18)
(0.991544 0.0561973 -1.36083e-18)
(0.952599 0.042151 1.52189e-18)
(1.01448 0.103621 -1.62363e-19)
(1.04209 -0.00606537 0)
(1.05018 -0.0019475 7.83027e-19)
(1.03847 -0.0100875 -7.84241e-19)
(1.06956 0.0403193 -4.67848e-20)
(1.06329 0.0222144 4.02423e-19)
(1.06405 0.0533749 0)
(1.05108 0.0482743 -1.44443e-19)
(1.0332 0.0403497 0)
(1.0261 0.0366205 0)
(1.02784 0.0127199 0)
(1.02434 0.0155672 0)
(1.03972 0.0305987 2.97333e-19)
(1.03939 0.0259505 -6.5574e-19)
(1.05021 0.0321877 -3.15576e-19)
(1.04816 0.0320299 -3.47065e-19)
(1.06918 0.0622003 6.81546e-19)
(1.0939 0.0496684 0)
(1.10177 0.0924063 0)
(-0.0405996 2.2778 -2.50075e-20)
(-0.01247 2.04844 -8.55619e-21)
(-0.0184426 2.03229 0)
(-0.0299669 2.45799 2.68111e-20)
(-0.0229933 2.40379 1.4753e-20)
(-0.0517342 2.46785 -6.86075e-21)
(-0.0272335 2.62637 5.4353e-20)
(-0.0336632 2.56746 -4.21976e-21)
(-0.0299055 2.52109 1.6172e-20)
(-0.0231408 2.62013 -2.17983e-20)
(-0.0289608 2.62112 2.79764e-20)
(0.0129837 1.51154 -5.35952e-24)
(0.0120931 1.64724 4.53231e-20)
(0.367735 1.42432 -7.07434e-20)
(0.365878 1.36808 8.68848e-20)
(0.646419 1.41365 -1.82816e-19)
(0.515038 1.47834 -1.14784e-19)
(0.568042 1.45007 0)
(0.592271 2.42354 2.21178e-19)
(0.659487 2.41577 3.50667e-19)
(0.411144 2.51748 8.37887e-20)
(0.404764 2.54471 -6.7909e-19)
(0.51288 2.48942 6.56065e-19)
(0.551879 2.46159 0)
(0.489094 2.51761 -5.87187e-19)
(0.249364 2.59361 1.24036e-18)
(0.354138 2.56635 -8.22158e-20)
(0.28522 2.65535 -1.69365e-18)
(0.943279 2.37852 7.70088e-19)
(0.835266 2.38123 0)
(1.01094 0.000388648 2.82618e-20)
(1.01521 -0.00552758 -2.29459e-20)
(1.01763 -0.0036564 -4.19295e-19)
(1.01489 -0.000980279 4.21133e-19)
(1.0123 0.0010151 0)
(0.634149 1.28184 0)
(0.652123 1.17848 0)
(0.755784 1.08676 0)
(0.644421 1.14328 0)
(1.18571 2.62309 5.87719e-20)
(1.07356 2.36712 0)
(0.837486 2.1901 4.32001e-21)
(0.825022 2.44829 0)
(0.92176 2.5394 -4.70488e-19)
(0.957016 2.49562 3.13188e-19)
(0.816144 0.157383 0)
(0.783251 0.130589 1.74062e-19)
(0.925144 0.138753 1.01259e-18)
(0.840057 0.136701 -3.79319e-19)
(0.817246 0.0783698 -1.1629e-18)
(1.07651 0.223523 -9.987e-19)
(0.996961 0.281699 -1.52491e-20)
(0.923317 0.279584 9.43798e-19)
(1.00468 0.212746 7.909e-19)
(0.953273 0.181874 -1.34985e-18)
(0.91783 0.183039 1.68693e-19)
(0.95169 0.242379 -3.62991e-19)
(0.930424 0.205277 0)
(0.993378 0.178634 6.66608e-19)
(1.04416 0.177606 0)
(1.04365 0.203641 0)
(1.10515 0.112104 3.19303e-19)
(1.06883 0.16552 -1.39237e-20)
(1.07083 0.225081 -1.74113e-19)
(1.10147 0.192621 0)
(1.0229 0.0437298 6.69115e-19)
(1.04102 0.0565612 8.36398e-19)
(1.03429 0.0421463 -6.63825e-19)
(1.04176 0.0629233 -5.60554e-19)
(1.01861 0.0705146 -8.55463e-19)
(0.988525 0.15071 0)
(0.998471 0.0999387 0)
(0.968631 0.0643399 -5.41775e-19)
(0.919591 0.0867554 2.12678e-19)
(1.03717 0.0996297 7.75118e-19)
(1.06753 0.11536 -9.20578e-19)
(1.06987 0.146595 8.21046e-19)
(1.02928 0.137289 0)
(1.07337 0.105189 0)
(1.05498 0.0864336 -3.74291e-19)
(1.04411 0.0927254 -6.34926e-19)
(0.577924 1.07596 1.60361e-19)
(0.612483 1.41374 -6.23189e-20)
(1.15637 2.74198 -2.55764e-19)
(1.22319 3.08262 7.33178e-21)
(1.24848 2.72279 -1.95542e-19)
(1.2787 2.70677 -1.96233e-21)
(1.20658 2.34597 -1.00868e-20)
(1.21029 2.98644 -1.17116e-19)
(1.22954 2.95152 2.72127e-19)
(1.21434 3.23611 -1.33788e-19)
(1.37539 2.96772 1.85046e-19)
(1.36615 2.88572 0)
(0.541016 0.846186 -5.30954e-20)
(0.137887 1.25679 5.98512e-19)
(0.532123 0.455849 6.42335e-19)
(0.369079 0.207211 7.0985e-19)
(0.528822 0.381603 7.66684e-19)
(0.545101 0.476307 -1.23952e-18)
(0.546717 0.478873 1.01212e-18)
(0.496904 0.403721 -3.87566e-19)
(0.420773 0.337604 8.78978e-19)
(0.74802 0.24734 -3.88378e-19)
(0.713657 0.280835 0)
(0.698783 0.205148 9.56915e-21)
(0.729597 0.512801 4.07913e-19)
(0.700443 0.483254 -1.48651e-18)
(0.614618 0.470426 1.58286e-20)
(0.625459 0.458406 0)
(0.671958 0.732071 4.29925e-19)
(0.823593 0.771805 4.48307e-19)
(0.748041 0.853473 -5.23109e-19)
(0.865161 0.804676 -1.80606e-19)
(0.897918 0.849221 -4.71589e-20)
(0.905963 0.84992 4.8287e-20)
(0.838986 0.644171 -7.70401e-19)
(0.916555 0.701393 1.67774e-19)
(0.972728 0.715907 0)
(0.963584 0.692307 -2.32016e-19)
(1.02366 0.319623 2.4194e-19)
(1.13737 0.289103 3.4225e-19)
(1.06358 0.258868 4.08467e-19)
(1.01041 0.354653 -4.84448e-19)
(1.051 0.420337 0)
(1.10297 0.404388 0)
(0.9118 0.35056 5.93388e-21)
(0.841601 0.283194 0)
(0.87263 0.276522 4.42768e-19)
(0.906258 0.285235 -4.85528e-21)
(0.939914 0.426028 2.32282e-18)
(0.896187 0.48732 6.00583e-19)
(0.900449 0.450485 -6.33909e-19)
(0.820062 0.43361 6.79192e-19)
(0.802666 0.429396 4.05675e-19)
(0.773401 0.415428 -3.98668e-19)
(1.02738 -0.000431738 6.98955e-19)
(1.02002 -0.000146478 0)
(1.01849 0.000793198 4.55247e-19)
(1.02154 -0.00197439 -1.03138e-18)
(1.02224 0.00420235 5.01135e-19)
(1.02043 0.0110573 -1.04973e-18)
(1.0214 0.0104534 0)
(1.02074 0.0107085 -2.18615e-19)
(1.01601 0.00759623 5.4849e-19)
(1.01676 0.0103434 -2.73612e-19)
(1.01745 0.00968753 2.01557e-19)
(0.0316785 1.31099 0)
(0.0356374 1.34386 0)
(0.0401827 1.31162 0)
(0.0447863 1.27435 0)
(0.0707898 1.37222 6.16564e-20)
(0.0771666 1.34536 -1.11136e-20)
(0.109928 1.5003 -4.16573e-20)
(0.0932427 1.34958 2.31533e-20)
(0.0343214 1.4431 -6.70948e-20)
(0.0384783 1.43561 5.21758e-20)
(0.0621636 1.35508 -6.68988e-21)
(0.0549213 1.35622 -2.92053e-20)
(0.0475354 1.33284 -4.61065e-21)
(0.0401361 1.35426 -7.41029e-21)
(0.109509 2.37881 -2.0368e-19)
(0.0971656 2.42438 0)
(0.173987 2.0531 1.29679e-19)
(0.112318 1.7104 6.28066e-20)
(0.232215 2.04674 -1.06154e-19)
(0.207592 2.44067 0)
(0.26756 2.39177 -6.6171e-19)
(0.306388 2.38964 4.69318e-19)
(0.234287 2.00609 -2.95582e-19)
(0.156057 2.16878 1.91875e-19)
(0.146178 2.28267 0)
(0.0181709 1.87687 -7.17511e-20)
(-0.00509532 2.40889 -1.32575e-19)
(0.00158695 2.16006 0)
(0.0121494 2.46744 -1.41942e-20)
(0.0268899 2.31146 4.75095e-20)
(0.0211692 1.3905 4.41639e-21)
(0.0148373 1.37633 -7.33185e-20)
(0.0150879 1.38119 1.94561e-20)
(0.0211433 1.37906 2.49414e-20)
(0.026807 1.40845 0)
(0.0106999 1.36376 0)
(0.00569395 1.27901 3.10848e-20)
(0.00272526 1.35318 -1.0621e-20)
(0.01075 1.35073 0)
(0.0101702 1.27789 1.99303e-20)
(0.00642235 1.19237 -4.19562e-20)
(1.03994 0.0109169 0)
(1.04621 0.00722585 -7.34396e-20)
(1.03868 0.0205146 -5.28875e-19)
(1.04787 0.0194378 0)
(1.05136 0.0193563 0)
(1.03641 0.0108484 -6.64545e-21)
(1.03097 0.0107092 8.48069e-19)
(1.03196 0.0157856 1.02928e-18)
(1.02596 0.0198105 0)
(1.02324 0.0202383 0)
(1.03525 0.0241817 5.27717e-19)
(1.02632 0.0255693 0)
(1.02461 0.0256254 0)
(-0.0324302 2.0294 0)
(0.00210867 1.65332 -7.14138e-21)
(-0.0146259 1.76987 -1.83036e-20)
(0.00432382 1.36042 0)
(-0.013224 1.55827 2.51661e-20)
(0.0018201 1.45553 -1.68687e-20)
(0.0190235 1.38048 0)
(0.391221 1.6705 0)
(0.367832 1.2974 -1.57655e-19)
(0.304707 1.34214 0)
(0.423845 1.29559 1.14256e-19)
(0.467297 1.45352 0)
(0.448546 1.39948 -2.30108e-20)
(1.03503 2.68652 -1.64714e-20)
(0.964797 2.4092 -9.67866e-19)
(0.914576 2.18929 1.10809e-18)
(0.848721 2.3734 2.54728e-19)
(0.84643 2.49703 0)
(0.916499 2.49355 0)
(0.926666 2.37166 0)
(0.905058 2.35803 -9.89819e-19)
(0.689087 2.46536 -4.37694e-19)
(0.800835 2.45587 -1.067e-19)
(0.811251 2.4297 8.13824e-20)
(0.694084 2.39027 0)
(0.798317 2.38559 0)
(0.757227 2.39816 -3.82198e-19)
(0.768719 2.4869 0)
(0.611825 1.09888 0)
(0.4827 0.928095 -5.45142e-19)
(0.549492 0.963019 -3.46311e-20)
(0.518703 1.05489 0)
(0.519532 1.00494 8.18615e-19)
(0.771613 0.879767 -1.49944e-19)
(0.781099 1.01549 0)
(0.754837 0.974045 2.22898e-19)
(0.641528 1.03501 0)
(0.64599 0.943558 0)
(1.16422 2.76313 -2.59977e-19)
(1.14182 2.82685 -1.17945e-19)
(0.931398 2.34762 1.35186e-19)
(0.899241 2.32531 -9.45353e-20)
(1.12897 2.73561 0)
(1.08237 2.70567 1.13795e-19)
(1.08886 2.48692 -3.41235e-19)
(0.982691 2.2342 -3.03584e-20)
(0.495437 1.35485 0)
(0.508552 1.07431 -1.41428e-19)
(0.561554 1.16396 0)
(0.860548 0.218211 0)
(0.78987 0.169238 0)
(0.736457 0.137972 0)
(0.855907 0.222113 -6.96921e-19)
(0.765001 0.209381 4.07933e-19)
(0.934391 0.0736539 -4.3929e-19)
(0.949302 0.119576 0)
(0.928552 0.1302 1.88315e-19)
(0.868915 0.10717 7.55082e-19)
(0.84245 0.0649746 -4.72633e-19)
(1.16191 3.36146 -7.0144e-19)
(1.20943 3.28081 0)
(1.16049 3.38937 -1.4514e-18)
(0.64802 3.55018 1.23208e-18)
(0.872935 3.11747 4.78823e-20)
(0.514177 0.853113 6.34602e-19)
(0.43133 0.846701 0)
(0.339652 0.491292 -1.60552e-19)
(0.451226 0.681004 9.14365e-19)
(0.535643 0.461277 -2.21792e-19)
(0.509466 0.514269 2.52302e-19)
(0.661987 0.530933 5.49769e-19)
(0.692286 0.554366 0)
(0.644251 0.612642 0)
(0.602049 0.550687 0)
(0.978177 0.601232 1.19694e-19)
(0.898439 0.536483 -5.84342e-19)
(0.922294 0.570523 4.5111e-19)
(0.958849 0.505432 -4.53262e-19)
(1.06231 0.479428 0)
(1.06948 0.570407 -1.16665e-19)
(0.844058 0.385208 -9.26355e-19)
(0.847577 0.371553 -1.14669e-18)
(0.79569 0.379647 7.22012e-19)
(0.791516 0.350216 -7.36979e-19)
(0.841671 0.306023 -5.76242e-19)
(0.794101 0.305255 7.07905e-19)
(1.02669 0.00550555 -5.35963e-19)
(1.02644 0.00572972 1.09289e-18)
(1.02914 -0.000255505 6.78276e-19)
(1.03329 0.000670311 -8.17139e-19)
(1.03338 0.00824202 0)
(1.03008 0.00880182 -1.32721e-18)
(0.0644485 1.64068 3.44594e-20)
(0.0462664 1.56842 0)
(0.0866163 1.69221 2.2401e-19)
(0.0966023 1.67528 -2.00052e-19)
(0.0875606 1.5202 7.81716e-20)
(0.0880772 1.50096 0)
(0.00413616 1.68444 0)
(-0.00234659 1.4899 -1.35986e-20)
(-0.0061503 1.4262 1.22204e-20)
(-0.00720836 1.54981 1.18769e-21)
(-0.00384938 1.89141 -2.36355e-20)
(-0.0222792 1.94344 1.34198e-20)
(0.494762 1.37259 -3.45219e-19)
(0.489057 1.37578 3.77653e-19)
(0.445257 1.29176 -8.59824e-20)
(0.433402 1.29299 1.17343e-20)
(0.625517 1.29814 0)
(0.544346 1.38536 4.95756e-20)
(0.560265 1.39325 -4.8251e-20)
(0.455837 1.27764 8.29878e-20)
(0.509107 1.23237 0)
(0.561642 1.19765 0)
(0.655732 2.42435 6.42981e-19)
(0.670101 2.4611 1.35074e-18)
(0.715609 2.473 -9.30398e-19)
(0.614987 2.44862 -2.1566e-19)
(0.561423 2.5406 3.06289e-19)
(0.511281 2.51395 -8.13027e-19)
(0.975588 2.37864 -6.20714e-19)
(1.01165 2.39278 0)
(0.921147 2.16763 -7.16305e-19)
(1.05254 2.68466 0)
(1.05463 2.6713 0)
(0.613191 2.27672 -1.38728e-19)
(1.04239 3.16433 1.12214e-19)
(0.913635 3.03437 -1.49862e-20)
(0.281979 0.915173 0)
(0.323498 0.776628 -3.34211e-19)
(0.481704 0.732038 -3.40071e-19)
(0.392184 2.02382 0)
(0.467799 2.78617 -3.33317e-20)
(0.424709 2.55018 0)
(0.686668 0.679754 -9.12776e-19)
(0.768394 0.680146 1.25002e-18)
(0.788814 0.622657 -1.23861e-18)
(0.669935 0.642382 -1.17878e-19)
(0.726126 0.5965 -4.89737e-19)
(1.00435 2.76786 -8.53237e-20)
(1.04117 2.82487 -2.00453e-19)
(0.641606 2.15501 7.0281e-19)
(0.597182 1.71821 -4.98515e-19)
(0.699964 1.90996 -4.46719e-19)
(0.98984 2.45104 -1.18024e-19)
(0.994524 2.44563 3.35488e-19)
(0.661735 1.85089 3.06812e-20)
(0.451869 1.33648 1.63242e-19)
)
;

boundaryField
{
    wall-4
    {
        type            noSlip;
    }
    velocity-inlet-5
    {
        type            fixedValue;
        value           uniform (1 0 0);
    }
    velocity-inlet-6
    {
        type            fixedValue;
        value           uniform (0 3 0);
    }
    pressure-outlet-7
    {
        type            zeroGradient;
    }
    wall-8
    {
        type            noSlip;
    }
    frontAndBackPlanes
    {
        type            empty;
    }
}


// ************************************************************************* //
