/*--------------------------------*- C++ -*----------------------------------*\
| =========                 |                                                 |
| \\      /  F ield         | OpenFOAM: The Open Source CFD Toolbox           |
|  \\    /   O peration     | Version:  4.0                                   |
|   \\  /    A nd           | Web:      www.OpenFOAM.org                      |
|    \\/     M anipulation  |                                                 |
\*---------------------------------------------------------------------------*/
FoamFile
{
    version     2.0;
    format      ascii;
    class       volScalarField;
    location    "23";
    object      p;
}
// * * * * * * * * * * * * * * * * * * * * * * * * * * * * * * * * * * * * * //

dimensions      [0 2 -2 0 0 0 0];

internalField   nonuniform List<scalar> 
918
(
0.23398
0.914258
0.0111649
0.23327
-0.00449704
0.881338
-0.827567
0.409164
0.214091
-0.426021
-0.305131
0.204949
0.741907
0.507784
-1.4558
-0.0471729
0.364748
-0.708377
0.212967
-0.0051559
0.476115
0.220714
0.223746
0.214329
0.274817
0.495261
0.622374
0.00790297
0.00075816
-0.00101172
-0.00201672
-0.0208933
-0.0224252
0.764975
0.816065
0.838729
0.182923
0.00737494
-0.679802
-0.754099
-0.742171
-0.87572
0.40023
0.404749
-0.485806
0.410468
0.424667
0.20148
0.213399
0.214304
0.215489
0.214394
0.215801
0.129399
-0.432061
-0.468499
-0.416095
-0.420903
-0.196972
-0.351932
-0.386293
-0.273567
-0.224563
0.138217
0.201988
0.198853
0.20927
0.218775
0.853805
0.825712
0.851843
0.765562
0.782045
0.719868
0.692336
0.528743
0.550144
0.492549
0.48152
-1.89989
-2.87464
-0.853216
-0.594526
-7.29428e-05
-0.062017
-0.0735383
0.352967
0.358127
0.362631
0.377953
0.766429
-0.699061
-0.845098
0.213128
0.211939
0.22041
0.221108
0.217104
0.216221
-0.00464952
-0.0197231
-0.0119676
0.00121101
-0.0080556
0.460142
0.453789
0.214888
0.211931
0.226698
0.248711
0.238097
-0.019301
0.284094
0.304169
0.305207
0.479012
0.476234
0.483998
0.595911
0.558422
0.659703
0.683097
0.00594679
0.00287638
-0.0431016
-0.0267066
-0.0335548
0.179422
0.172715
0.196917
0.186133
0.188462
-0.077084
-0.213046
0.0920697
0.115584
-0.587092
-0.653831
-0.764318
-0.777303
-0.886655
0.243333
0.390844
0.394125
-0.502593
-0.420918
-0.564118
-0.346279
-0.414321
0.191994
0.19881
0.193917
0.209134
0.203706
0.20566
0.217674
0.214748
0.216317
0.182063
0.302302
0.058979
0.0402051
-0.571431
-0.47465
-0.557036
-0.417767
-0.421244
-0.180861
-0.162021
-0.213049
-0.23284
-0.434869
-0.422466
-0.427389
-0.181487
-0.134116
0.130751
0.121511
0.149294
0.155392
0.193926
0.194786
0.196989
0.19564
0.643123
0.665549
0.672962
0.646691
-3.88829
-6.71633
-0.26032
-0.117313
-6.72015e-06
0.0028744
0.00177255
0.00775945
0.00149678
-0.00101749
-0.20216
-0.176481
-0.102398
-0.127814
0.339822
0.341852
0.680914
0.671734
0.66669
0.615274
0.201315
0.203448
0.208877
0.204731
-0.0908813
-0.0379803
-0.0606719
0.423787
0.44183
0.438087
-0.0544715
-0.140444
0.0268227
0.0540769
0.32561
0.308727
0.325598
0.368704
0.404824
0.690576
0.708834
0.707126
0.715515
0.759558
0.775969
0.741263
0.160242
0.170052
0.165104
0.200393
0.197865
0.199057
0.19404
0.19576
0.193164
-0.367024
-0.754455
0.179204
0.199367
0.159318
0.167341
0.318942
0.393409
0.374568
0.38409
0.386278
-0.280949
-0.343978
-0.0215518
-0.0546962
0.0793619
0.110836
0.0944522
0.614238
0.574705
0.624627
0.598216
0.559572
0.58568
-0.706259
-2.23657
-1.33803
0.245977
0.0527475
0.143449
-0.225582
-0.2674
-0.249768
0.655187
0.732921
0.358498
0.515332
0.532657
0.445606
0.477623
0.531297
0.454248
0.490513
0.527998
0.510466
0.203622
0.182339
0.174701
0.467738
0.525415
-0.167588
-0.219106
-0.270539
-0.149026
-0.112202
-0.134147
0.700462
0.590014
0.664212
0.2117
0.212377
0.00606492
0.00640964
0.216441
0.216495
0.00382923
-0.00752994
0.124973
-1.16743
-0.178707
0.204734
0.19539
0.21201
-0.411762
0.0857553
-0.369551
-0.277301
-0.222359
0.202071
0.14738
0.11382
0.00722954
-0.0188205
-0.0242874
-0.515122
0.209344
0.207646
0.211525
0.212538
0.213197
0.00564213
0.00304583
0.00308593
-0.0118143
-0.00109202
0.00108471
0.177435
0.193295
-0.474058
0.21166
0.213831
0.213629
0.20655
0.212396
0.210523
-0.018162
-0.0122132
-0.0329329
-0.0681207
0.047461
0.380162
0.484464
0.337833
0.108193
-0.136486
0.276046
0.344521
0.242597
0.407724
0.378843
0.398626
-0.118731
-0.26559
-0.109376
-0.163699
0.202791
0.201477
0.193566
0.1907
0.207
0.205119
0.209569
0.206382
0.209415
0.210886
-0.361886
-0.401156
-0.403584
-0.454719
0.044129
0.296942
-0.0154124
0.0249014
-0.126524
-0.357023
-0.284229
-0.431889
-0.442965
-0.594836
-0.255316
-0.313328
-0.300838
-0.150877
-0.28576
-0.492576
-0.333735
-0.374293
0.19632
0.194906
0.202143
0.208909
0.155628
0.158198
0.12961
0.146691
0.133089
0.0793054
0.112262
0.0896809
0.00359081
0.0101864
0.00466757
-0.0237643
-0.0630077
-0.00377151
0.00742333
0.0140759
-0.00500675
-0.00629011
-0.0322889
-0.0375173
-0.479033
-0.593219
0.657945
0.616385
-0.206275
0.19853
0.204928
0.201733
0.206626
0.209629
0.210407
0.208177
0.204778
0.194069
0.195994
0.1918
0.192381
-0.417888
-0.553378
-0.374547
-0.440716
-0.186922
0.315394
0.0600338
0.00111358
-0.00332134
0.208795
0.609945
0.415362
0.435293
0.460585
-0.665861
-0.262703
-0.595773
0.0252984
-0.156385
0.378033
0.430262
0.453353
0.399257
0.348568
-0.440427
0.214741
-0.359844
-0.316689
-0.127677
-0.230343
0.421451
0.362756
0.370797
0.388028
0.409388
0.368063
0.345786
0.343576
0.380758
0.385489
0.181384
-0.0360768
-0.0816449
-0.117806
0.346955
0.221252
0.275616
0.193716
0.197629
0.200473
0.199014
0.18231
0.189252
0.185299
0.190661
0.193372
0.202776
0.203058
0.198502
0.200782
-0.398185
-0.397462
-0.350343
-0.439868
-0.431522
-0.482156
-0.386971
-0.213577
-0.230728
-0.0823547
0.0341217
-0.253208
-0.385705
-0.354629
-0.323842
-0.12926
-0.113248
-0.253957
-0.127957
-0.135043
-0.172037
-0.0227335
-0.0365601
-0.527401
-0.573551
-0.507128
-0.490054
-0.280154
-0.221488
-0.185483
-0.301647
-0.478251
-0.244752
-0.169756
-0.444614
-0.52269
-0.521903
-0.392747
-0.0163297
-0.0239532
-0.049451
-0.163314
-0.120885
-0.173598
0.192368
0.193289
0.193421
0.205736
0.217248
0.232387
0.198571
0.175013
0.168015
0.170499
0.145851
0.154835
0.150734
0.163165
0.182499
0.188713
0.188791
0.190709
0.175507
0.176028
0.165112
0.168688
0.146463
0.129635
0.11911
-0.0101996
-0.000570685
-0.00603362
-0.0247536
0.00402291
-0.00510877
-0.139042
-0.0509728
-0.080671
-0.0709646
-0.15554
0.00874109
-0.00174288
-0.391089
-0.315735
-0.503937
-0.530511
-0.601283
0.569306
0.674375
0.507608
0.290074
0.288031
0.51538
0.614473
0.25874
0.425059
0.455278
0.217141
0.491372
0.203476
0.202855
0.200388
0.199898
0.201346
-0.332678
-0.237069
-0.220745
-0.170823
-0.0573104
0.0574325
-0.0391014
-0.156094
-0.017896
-0.00666511
0.310216
0.326551
0.27055
0.29606
0.296039
0.122052
0.197312
0.25145
0.207507
0.251225
0.273159
0.234033
0.264162
0.211516
0.170134
0.169191
0.11666
0.136622
0.114601
0.0974231
0.19345
0.172112
0.181768
0.174444
0.193919
0.221427
0.217066
0.24108
0.253527
0.179431
0.142389
0.151093
0.177681
0.140902
0.153367
0.167475
-0.121181
-0.217761
-0.130104
-0.424767
-0.332887
-0.348881
-0.394558
-0.357231
-0.0698664
-0.774845
-0.74129
-1.37957
0.148499
0.63717
0.378157
0.351776
0.407835
0.385456
0.387996
0.418732
0.425055
0.337877
0.356531
0.359545
0.307282
0.332774
0.363698
0.359762
0.191534
0.072796
0.062644
0.0258424
-0.0938564
-0.0637669
0.136515
0.0604241
-0.0101355
-0.00490194
0.157247
0.0501232
0.112979
0.150739
0.0845865
0.0431774
0.238284
0.305987
0.295542
0.27071
0.185853
0.19706
0.223174
0.259245
0.284893
0.319673
0.190033
0.195733
0.197017
0.194792
0.192182
0.194913
0.194868
0.197411
0.198347
0.201088
0.200066
-0.471954
-0.494901
-0.407395
-0.441426
-0.345175
-0.330251
-0.255612
-0.292091
-0.425174
-0.38322
-0.373995
-0.389204
-0.403996
-0.418859
-0.181578
-0.164523
-0.190772
-0.236401
-0.0531588
0.0723841
0.134157
0.026925
-0.0875878
-0.0561565
-0.029522
-0.4202
-0.399881
-0.521686
-0.357265
-0.32736
-0.393728
-0.309003
-0.318587
-0.462
-0.447914
-0.222263
-0.0610495
-0.0886068
-0.138182
-0.119305
-0.0800015
0.177991
0.172855
0.172259
0.167264
0.16649
0.178537
0.182842
0.184944
0.189932
0.191151
0.182869
0.186942
0.19025
-0.0745862
-0.00360789
-0.0207717
-0.0647551
-0.0241189
-0.00774496
-0.0278421
-0.202296
-0.277174
-0.272456
-0.320085
-0.441073
-0.386098
0.140955
0.129295
0.149008
0.363249
0.219416
0.131668
0.220312
0.324582
-0.0547675
0.136714
-0.0287309
0.542653
0.42806
0.575767
0.206166
-0.099946
0.0475792
0.10245
-0.0961866
-0.0215654
0.00199893
-0.108372
-0.0759425
-0.0481275
0.052268
-0.073454
-0.103849
-0.350932
-0.169833
-0.0337925
-0.054355
0.0746596
0.136832
-0.0910699
-0.167646
-0.204902
0.300177
0.320515
0.337681
0.308203
0.331461
0.256011
0.247292
0.266087
0.276722
0.269885
-1.10996
-0.820749
-1.76085
-1.06931
-0.624684
0.178821
0.133687
0.431749
0.319534
0.400279
0.381027
0.338844
0.300082
0.310747
0.348472
0.0497209
0.156628
0.130872
0.140063
0.0447355
-0.0220817
0.273739
0.267657
0.303965
0.3281
0.296416
0.329585
0.188296
0.187976
0.186885
0.18418
0.182478
0.184546
-0.26903
-0.34131
-0.242761
-0.256843
-0.283744
-0.327609
-0.112326
-0.120198
-0.0900058
-0.0804227
-0.0572156
-0.110428
-0.179151
-0.232368
-0.299926
-0.270072
-0.331748
-0.395589
-0.419153
-0.315335
-0.227702
-0.23363
0.0707628
0.318415
0.148056
0.314074
0.149135
0.207746
0.147741
0.140784
0.176354
0.0418267
0.117717
-0.13466
-0.633812
-0.541636
0.44082
0.461219
0.243016
0.0480109
-0.175374
0.0235052
0.22078
0.159168
0.199322
0.26702
0.25944
-0.343485
-0.267996
-0.0345881
0.192521
-0.110499
-0.119055
-0.122424
0.0402875
-0.0278446
)
;

boundaryField
{
    wall-4
    {
        type            zeroGradient;
    }
    velocity-inlet-5
    {
        type            zeroGradient;
    }
    velocity-inlet-6
    {
        type            zeroGradient;
    }
    pressure-outlet-7
    {
        type            fixedValue;
        value           uniform 0;
    }
    wall-8
    {
        type            zeroGradient;
    }
    frontAndBackPlanes
    {
        type            empty;
    }
}


// ************************************************************************* //
