/*--------------------------------*- C++ -*----------------------------------*\
| =========                 |                                                 |
| \\      /  F ield         | OpenFOAM: The Open Source CFD Toolbox           |
|  \\    /   O peration     | Version:  4.0                                   |
|   \\  /    A nd           | Web:      www.OpenFOAM.org                      |
|    \\/     M anipulation  |                                                 |
\*---------------------------------------------------------------------------*/
FoamFile
{
    version     2.0;
    format      ascii;
    class       volVectorField;
    location    "23";
    object      U;
}
// * * * * * * * * * * * * * * * * * * * * * * * * * * * * * * * * * * * * * //

dimensions      [0 1 -1 0 0 0 0];

internalField   nonuniform List<vector> 
918
(
(0.985158 -0.000521568 0)
(0.00500392 2.96626 0)
(-0.0173397 1.54526 0)
(0.979699 0.00215967 0)
(-0.00154067 1.53613 1.84393e-20)
(-0.00703573 2.94878 -1.87151e-18)
(0.851578 1.19378 7.28692e-19)
(0.396248 0.179363 -9.01317e-21)
(0.999906 -0.000297301 0)
(0.0616211 0.844491 0)
(-0.0561543 0.783789 0)
(0.74515 -0.0116457 0)
(0.0111387 2.93032 0)
(0.00189406 2.79502 0)
(-0.0176669 3.16625 1.08123e-18)
(0.00549722 1.40813 5.12443e-20)
(0.507584 0.0776241 5.6567e-19)
(0.192508 1.21203 6.37853e-19)
(0.96306 0.00508891 0)
(-0.00172697 1.23505 0)
(0.125212 0.233616 -4.72413e-19)
(1.00206 -0.00498628 0)
(1.00022 -0.00977769 0)
(0.975728 -0.00645444 0)
(0.654635 -0.0397275 0)
(0.0172416 2.63341 0)
(-0.0150726 2.91016 6.46589e-19)
(-0.026233 1.56453 0)
(-0.0369615 1.71357 0)
(-0.026072 1.5568 0)
(-0.00514006 1.88117 0)
(0.00842876 1.56441 -1.45808e-20)
(0.00197903 1.42177 0)
(-0.0206134 2.98759 -6.54642e-23)
(-0.0166995 3.0053 1.45465e-18)
(0.00210558 3.0002 0)
(0.870407 -0.0095064 0)
(0.397627 0.935675 -3.15409e-20)
(0.828187 1.21305 -1.01688e-18)
(0.975224 1.04635 9.55255e-19)
(0.696203 1.30968 -1.69042e-19)
(0.694943 1.2996 9.46952e-19)
(0.434661 0.272294 8.79385e-21)
(0.428685 0.165778 0)
(1.16066 0.560464 0)
(0.397785 0.280004 4.10337e-20)
(0.350565 0.177618 -4.25852e-20)
(0.919565 -0.00741807 0)
(1.00028 0.000122966 0)
(0.999908 0.000339013 0)
(1.00359 -0.00779832 0)
(1.00095 -0.00100573 0)
(1.00017 9.62165e-06 0)
(0.0776664 1.79198 -2.42324e-19)
(0.0156942 0.978021 0)
(0.0997622 0.930179 0)
(0.0320044 0.906578 0)
(0.0210165 0.756982 0)
(-0.093396 1.68189 0)
(-0.0543418 0.833249 0)
(-0.0217019 0.668676 0)
(-0.0577089 0.955675 0)
(-0.0495847 0.914735 0)
(0.832969 -0.00857902 0)
(0.854879 0.0158083 0)
(0.76681 0.000842394 0)
(0.842724 0.0185627 0)
(0.731813 -0.0160423 0)
(0.0146997 3.0004 6.8516e-19)
(0.011521 3.00795 0)
(0.00612677 3.00283 0)
(0.0135551 2.99735 7.6397e-24)
(0.00798497 2.95845 -1.01832e-18)
(0.0144924 2.98203 0)
(0.0108184 2.90361 0)
(0.0247774 2.93028 1.37002e-24)
(0.00423389 2.82533 0)
(0.0317543 2.91574 0)
(-0.00618854 2.74461 0)
(0.311633 3.56693 0)
(-0.132376 3.64928 0)
(0.141259 3.25711 -1.00624e-18)
(-0.0113462 2.98938 0)
(-0.0429463 1.84462 0)
(0.0320488 1.58565 -5.05531e-20)
(0.00957411 1.38637 8.02681e-20)
(0.570847 0.156507 -1.94877e-19)
(0.50981 0.0482132 -1.89289e-19)
(0.554775 0.176771 -5.86728e-19)
(0.500878 0.102653 -3.95681e-19)
(0.216384 0.903864 0)
(0.272963 1.35822 -6.61248e-19)
(0.393965 1.31396 1.08668e-18)
(0.987681 0.00858435 0)
(0.942152 0.00596415 0)
(1.00029 0.000578563 0)
(1.00286 0.00930026 0)
(1.00301 0.00846958 -1.10128e-18)
(0.991933 0.00967079 8.31607e-19)
(-0.0217981 1.38349 0)
(-0.0218479 1.19798 0)
(-0.0360382 1.5696 0)
(-0.0232268 1.45439 0)
(-0.00208568 1.28883 0)
(0.184347 0.242861 1.45585e-19)
(0.231256 0.219439 0)
(0.993539 -0.00832014 0)
(0.954378 -0.0063977 0)
(0.81044 0.0264297 0)
(0.776528 0.0379704 0)
(0.707968 -0.0308683 0)
(0.980236 -0.00364445 0)
(0.716577 0.0538592 0)
(0.56187 -0.0191749 7.56179e-19)
(-0.0356839 2.86565 3.30974e-19)
(0.042799 2.90859 0)
(0.0564525 2.88342 0)
(-0.00520367 2.69738 0)
(-0.0129867 2.98524 5.93987e-19)
(-0.0182305 2.89541 0)
(-0.0154014 2.9881 -1.87994e-18)
(-0.0133584 2.92523 6.49553e-19)
(-0.043071 1.79683 0)
(-0.0386265 1.8033 0)
(0.0161818 1.56943 1.13796e-21)
(0.0123668 1.54922 0)
(-0.00426509 1.41582 0)
(0.937178 -0.00664194 0)
(0.855782 -0.00921863 0)
(0.864914 0.00820259 0)
(0.948623 -0.00762992 0)
(0.883188 -0.00875049 0)
(0.511511 1.13105 2.85705e-20)
(0.563034 1.18532 0)
(0.357232 0.874806 4.39354e-21)
(0.300305 0.736182 0)
(0.934915 1.08386 -2.76057e-19)
(1.04779 0.881729 5.65349e-19)
(0.389218 1.40458 0)
(0.549065 1.37743 0)
(0.550585 1.33653 0)
(0.0997154 0.159031 -1.30243e-19)
(0.478219 0.256081 0)
(0.461632 0.154409 1.13342e-19)
(1.01799 0.935899 0)
(1.085 0.780364 0)
(1.1104 0.722973 -4.95161e-19)
(1.14077 0.619808 0)
(1.19197 0.403819 5.78495e-20)
(0.95726 -0.0088356 0)
(0.962183 -0.0101553 0)
(0.9011 -0.00807241 0)
(0.984174 -0.00914832 0)
(0.974512 -0.0094423 0)
(0.936918 -0.00628319 0)
(1.00018 0.00234569 0)
(1.00085 0.00135056 0)
(0.999925 0.000859165 0)
(0.0399817 2.02135 1.54213e-19)
(0.128431 1.70463 0)
(0.013167 2.11573 1.39683e-19)
(0.0475026 1.87071 -5.58544e-20)
(0.135126 1.20212 -5.28681e-19)
(0.05616 1.06247 0)
(0.0978514 1.0647 0)
(0.000815814 0.840538 0)
(-0.00109746 0.693812 0)
(-0.0812212 1.95637 2.9356e-21)
(-0.0484041 1.835 0)
(-0.0447909 1.81488 1.94116e-19)
(-0.0736986 1.51294 -3.929e-19)
(0.0179036 0.789898 0)
(-0.00822848 0.778118 0)
(-0.00749998 0.648341 0)
(-0.0603734 1.08342 0)
(-0.0437847 1.02293 0)
(0.927514 0.0130968 0)
(0.849478 -0.00373286 0)
(0.916507 0.00216344 0)
(0.834163 -0.0112609 0)
(0.812863 0.00551291 0)
(0.903676 0.01623 0)
(0.881104 0.0184206 0)
(0.787573 0.00412966 0)
(0.00573034 3.06471 -6.02218e-21)
(0.0164164 3.058 0)
(0.0146351 2.96913 0)
(0.00849932 2.87635 0)
(0.930035 3.98746 0)
(1.24596 3.31759 1.01536e-18)
(0.0712632 3.0816 0)
(-0.0268274 2.91041 0)
(-0.0534308 1.79407 0)
(-0.0586908 1.83275 0)
(-0.046955 1.81138 0)
(-0.0221245 1.87079 4.70315e-21)
(-0.0510545 1.85976 0)
(-0.0316049 1.85296 0)
(0.0126093 1.38638 -3.99608e-20)
(0.0567704 1.59759 -1.65562e-19)
(0.0492547 1.5883 -8.17975e-20)
(0.010426 1.37044 0)
(0.602612 0.124554 2.87181e-19)
(0.526603 0.0186016 -2.80157e-19)
(0.261692 1.53355 0)
(0.258611 0.673438 -2.10218e-19)
(0.169706 1.61864 -7.043e-19)
(0.236933 1.15535 7.06321e-19)
(0.903162 0.00662302 0)
(0.967716 0.010784 0)
(0.974812 0.0107703 0)
(0.923983 0.00664897 0)
(-0.0548457 1.2078 0)
(-0.0361013 1.31146 0)
(-0.0394098 1.12214 0)
(0.350251 0.276741 3.76976e-19)
(0.294343 0.257547 -4.59433e-19)
(0.301842 0.198065 0)
(1.1058 0.0860706 -3.41922e-21)
(1.09065 0.0400041 0)
(1.01811 0.039585 0)
(0.918434 0.00405023 0)
(0.625637 0.0946334 0)
(0.657221 0.0686865 -1.21714e-18)
(0.542146 0.00384928 4.64895e-19)
(0.00966934 2.98153 4.19352e-19)
(-0.0328721 2.8669 4.66618e-20)
(0.0037926 3.0502 -1.30141e-20)
(0.0200075 3.04348 4.68032e-19)
(-0.0149995 2.99655 2.16016e-20)
(-0.0130023 2.94945 -8.74213e-23)
(-0.0172918 3.01198 -4.09572e-19)
(0.0148474 3.02391 2.96322e-19)
(0.00733762 3.03682 -4.63073e-19)
(0.927337 -0.00166492 0)
(0.936138 -0.00288128 0)
(0.842245 -0.0073863 0)
(0.957157 0.0113461 0)
(0.943896 0.0129065 0)
(0.883228 0.00660266 0)
(0.919531 0.0151158 0)
(0.927897 0.0145305 0)
(0.840248 0.00718129 0)
(0.719194 1.41479 3.28522e-19)
(0.754276 1.52562 0)
(0.220538 0.354796 2.56775e-20)
(0.185754 0.595279 2.09514e-19)
(0.268205 0.696807 -1.17014e-19)
(0.230594 0.577896 2.13825e-19)
(0.300095 0.711296 7.43579e-19)
(0.107912 0.187674 2.14868e-19)
(0.537952 0.209643 4.24151e-19)
(0.51091 0.239194 1.06443e-19)
(0.489542 0.13546 2.1349e-19)
(1.18125 0.460817 2.94932e-19)
(1.1983 0.256113 3.07523e-19)
(-0.0117757 2.13713 8.87752e-21)
(-0.0102573 1.93114 0)
(0.969345 0.0305705 0)
(0.936677 0.0192032 0)
(0.875108 -0.00371528 0)
(0.0111829 3.07476 0)
(0.0199898 2.9441 8.02977e-19)
(0.0165094 2.95652 0)
(0.00606374 2.85074 -7.96683e-19)
(0.00606882 3.09127 1.90274e-19)
(0.00722419 3.08228 0)
(0.788069 1.83062 -2.39723e-19)
(1.25321 2.51378 6.60125e-19)
(0.770761 1.97172 -1.49519e-18)
(0.0210896 2.98412 -3.06771e-19)
(0.0369816 3.00648 0)
(-0.0324699 2.88202 0)
(0.0125182 1.68599 -8.13776e-21)
(0.0559719 1.64864 4.33921e-19)
(0.0244675 1.43555 -1.82311e-20)
(0.277151 1.34148 6.82012e-19)
(0.211734 0.448529 -4.70152e-19)
(0.0621234 1.94513 4.63542e-19)
(0.133779 1.83986 -5.80608e-19)
(0.184149 1.44282 8.41338e-20)
(0.00248912 3.11907 -1.11815e-18)
(0.0135714 3.1189 1.20997e-18)
(-0.00862151 2.98129 5.14081e-19)
(-0.00362769 2.97786 -4.53488e-19)
(-0.0213206 2.88177 -5.2358e-19)
(0.0087139 3.1002 -1.39518e-18)
(0.00235446 3.10496 1.37252e-18)
(0.238009 0.62829 0)
(0.191793 0.617249 -4.07039e-19)
(0.112984 0.207061 1.83736e-19)
(0.323829 0.831941 6.48259e-19)
(0.171752 0.230013 -9.92013e-19)
(1.19144 0.172461 -5.62963e-20)
(1.19746 0.308878 0)
(1.18025 0.120451 1.20019e-19)
(-0.0569904 2.05932 2.30096e-21)
(-0.0517156 2.12735 0)
(-0.0427107 1.91587 0)
(0.333824 1.23125 -2.46616e-19)
(0.349798 1.04686 -5.26299e-19)
(0.18723 0.324237 9.06027e-19)
(1.00584 -0.0109861 0)
(1.00761 -0.00762378 2.00922e-19)
(-0.0476874 1.76895 0)
(-0.054627 1.77171 0)
(1.00224 0.00348223 1.79277e-21)
(1.00352 0.00923895 4.13435e-19)
(-0.0258533 1.8886 -6.07659e-21)
(-0.0171664 1.89935 0)
(0.0387945 3.1829 1.16926e-19)
(0.400742 3.50199 0)
(1.1206 0.643836 6.43825e-20)
(1.01316 0.0128822 -2.00597e-21)
(1.02096 -0.0106947 0)
(1.00175 1.21392e-05 7.18101e-23)
(0.140854 1.33799 0)
(0.15117 2.56544 0)
(-0.164301 1.05561 0)
(-0.176503 2.6797 -2.51148e-19)
(-0.234343 2.47737 -1.33633e-19)
(1.00781 0.0201797 3.04868e-21)
(1.05237 -0.00056697 0)
(1.07712 0.0292518 0)
(-0.0673823 1.82998 0)
(-0.0357746 2.00335 0)
(-0.116079 1.64877 0)
(0.289984 1.46318 -4.36768e-19)
(1.0112 -0.00964516 0)
(1.00945 -0.0151873 0)
(1.00249 0.000502385 2.56408e-19)
(1.00548 -0.0049812 -3.02084e-19)
(1.00123 -0.00105386 0)
(-0.0877534 1.80214 0)
(-0.0632338 1.76535 0)
(-0.0671263 1.79036 0)
(-0.0994298 1.65797 0)
(-0.0593869 1.71539 0)
(-0.0717816 1.7025 0)
(1.03413 -0.0085456 0)
(1.02059 0.0150165 -1.17302e-21)
(0.780085 1.26015 5.16643e-19)
(1.0022 0.000308371 -2.5433e-19)
(1.00402 0.00524622 3.01497e-19)
(1.00121 0.00208124 0)
(1.01296 0.0101815 2.49352e-19)
(1.00809 0.00817316 -3.09377e-19)
(1.00875 0.0145866 0)
(-0.0335921 1.99582 0)
(-0.0302742 1.94168 -2.19542e-20)
(-0.022998 1.95155 1.91401e-20)
(1.19314 0.258946 -6.47153e-20)
(1.13131 0.0883713 0)
(0.0507698 3.07734 -5.20628e-19)
(0.0679367 2.85116 -4.15215e-20)
(0.146912 3.19626 8.25684e-19)
(0.141034 3.2256 -3.59848e-21)
(0.139064 3.24133 0)
(0.0215224 3.13853 1.13415e-19)
(0.0801323 3.16161 5.07472e-19)
(0.0725208 3.18905 -2.18988e-19)
(0.0250902 3.12863 0)
(0.660848 0.323614 0)
(0.586765 0.371719 0)
(1.09344 0.672861 -2.47852e-19)
(1.09179 0.810271 3.84383e-19)
(1.14974 0.560847 0)
(1.18177 0.504325 0)
(1.01615 0.0130419 -4.61255e-19)
(1.01493 0.0140146 5.76245e-19)
(1.02509 -0.010511 0)
(1.02331 -0.0121587 0)
(1.00692 0.00253801 0)
(1.01045 0.00340758 0)
(1.00461 0.00159595 0)
(1.00995 0.00617667 0)
(1.00797 0.00619929 0)
(1.00427 0.00437382 0)
(0.131986 1.33416 0)
(0.12246 1.24633 0)
(0.138957 1.39574 0)
(0.131995 1.38858 0)
(0.141341 2.58821 0)
(0.183069 2.64667 -2.10267e-19)
(0.108744 2.64091 0)
(0.087133 2.64156 -9.19002e-22)
(0.0171949 2.67648 2.08515e-19)
(-0.152884 1.08912 0)
(-0.172534 1.09104 0)
(-0.0853312 1.05957 0)
(-0.0196438 0.946356 0)
(-0.145678 2.34461 4.44759e-19)
(-0.247262 2.57308 -2.79976e-19)
(-0.205188 2.69454 -3.70102e-19)
(-0.21576 2.63851 0)
(-0.221937 2.46706 3.10496e-19)
(-0.169244 2.37285 2.50384e-19)
(-0.204901 2.33165 -3.72244e-19)
(-0.275809 2.52631 3.85108e-19)
(-0.257448 2.56829 4.68331e-19)
(1.01672 0.0308961 4.54492e-19)
(1.00982 0.0193865 -5.6195e-19)
(1.00864 0.0291812 -4.72207e-19)
(0.990969 0.0125787 6.06676e-19)
(1.05292 0.00222287 0)
(1.04052 -0.0149803 0)
(1.07415 0.0358607 0)
(1.05812 0.0115072 0)
(1.05569 0.00536709 0)
(1.11528 0.0781882 0)
(1.08739 0.0487114 0)
(1.08943 0.0408439 0)
(-0.0601451 1.88727 -6.45499e-22)
(-0.0872698 1.86145 0)
(-0.0635238 1.8655 0)
(-0.0524884 2.06422 -1.52333e-20)
(-0.0375896 2.08715 2.02257e-21)
(-0.158026 1.82456 2.16369e-21)
(-0.106834 1.79892 -2.19361e-21)
(-0.139619 1.70949 0)
(-0.106356 1.74747 0)
(-0.0917741 1.75588 0)
(-0.151664 1.59672 0)
(-0.107546 1.51216 0)
(0.378844 1.47755 8.25258e-19)
(0.407619 1.49294 3.2364e-19)
(0.595013 2.43344 -1.55784e-19)
(0.406799 2.52698 4.30853e-19)
(0.356339 2.08953 -4.85026e-20)
(1.02088 -0.00876447 0)
(1.01535 -0.0100822 0)
(1.01477 -0.0155249 0)
(1.0078 -0.00131912 0)
(1.00473 -0.00133544 0)
(1.00759 -0.00471783 0)
(1.00919 -0.00373258 0)
(1.01418 -0.00468808 0)
(1.02173 0.0156355 4.3885e-19)
(1.01747 0.0155541 -5.64465e-19)
(1.02296 0.0185033 -4.40968e-19)
(1.0188 0.0180713 5.52482e-19)
(0.753429 1.31002 0)
(0.687008 1.36646 6.09996e-19)
(0.857027 1.20111 3.54136e-19)
(0.901027 1.1588 -4.71493e-19)
(1.15302 2.61758 -5.44878e-19)
(0.835252 0.104157 2.95329e-19)
(1.1318 0.102226 0)
(1.17541 0.18229 5.64931e-20)
(1.16088 0.157668 2.51388e-21)
(0.987001 0.123297 0)
(0.145779 2.96551 1.41149e-19)
(0.123289 2.87114 -6.74946e-19)
(0.0347545 2.35925 4.84739e-19)
(0.100641 0.0767207 -2.04541e-19)
(0.345238 3.42999 -4.38989e-19)
(0.198941 3.32066 0)
(0.240633 3.36509 5.71701e-19)
(0.253963 3.03932 -7.76765e-19)
(0.349153 3.19934 0)
(0.00804423 3.12058 2.65402e-20)
(0.0179786 3.1297 -3.37926e-19)
(0.0163735 3.12561 4.97388e-19)
(0.0379324 3.1398 0)
(0.0364382 3.15159 0)
(1.21762 2.61886 0)
(0.525756 0.851005 -2.41537e-19)
(1.02284 0.984093 -2.00887e-19)
(0.959853 1.05082 0)
(0.801967 0.948179 5.24449e-20)
(1.04471 0.863715 2.99394e-20)
(0.402226 0.439303 -5.42945e-19)
(0.699596 0.340469 -2.39331e-20)
(0.685152 0.277378 2.2843e-19)
(0.60069 0.40141 1.78812e-20)
(0.536978 0.378326 -7.33145e-19)
(0.670366 0.358248 0)
(0.697146 0.42848 3.74786e-19)
(0.696532 0.426174 0)
(0.630017 0.392403 0)
(0.618112 0.328157 0)
(0.773991 0.593059 1.34086e-19)
(1.19135 0.275778 3.91332e-20)
(1.18838 0.408352 0)
(1.19982 0.360486 0)
(0.768715 0.19718 3.38546e-19)
(0.823656 0.534044 -1.86371e-19)
(0.73525 0.502404 3.05056e-19)
(0.914815 0.420022 -2.86804e-19)
(1.01946 0.0144565 3.03735e-19)
(1.0178 0.0139796 -3.10706e-19)
(1.0157 0.0153458 0)
(1.03498 -0.00623882 0)
(1.02924 -0.00955792 -2.80002e-19)
(1.0272 -0.0127387 2.77169e-19)
(1.02527 0.00872313 0)
(1.02426 0.0126281 0)
(1.01136 0.00366035 0)
(1.01425 0.00871792 0)
(1.01506 0.00328573 0)
(1.01421 0.00221037 0)
(0.130034 1.23832 0)
(0.109163 1.08308 0)
(0.150897 1.38964 3.50171e-19)
(0.271957 1.45625 2.49531e-19)
(0.175561 1.43488 5.46671e-19)
(0.201939 1.43578 -8.85576e-19)
(0.163455 1.39393 0)
(0.106483 1.58951 2.55917e-19)
(0.08905 1.56478 0)
(0.346897 2.04165 7.05021e-20)
(0.348458 2.3697 2.40229e-19)
(0.143866 1.45926 -2.23778e-19)
(0.263801 1.36375 1.91905e-19)
(0.17961 1.37529 -1.53999e-19)
(0.273825 1.31062 3.14525e-19)
(0.245291 1.57639 0)
(0.260693 1.62685 -2.06805e-19)
(0.0588738 2.34965 1.19428e-19)
(0.0176774 2.68269 0)
(0.0739914 2.40959 -1.73337e-19)
(0.0515102 2.45715 0)
(0.0844976 2.64589 -1.72895e-22)
(0.0446806 2.69388 0)
(-0.161763 1.45773 5.32732e-19)
(-0.0538727 1.63012 0)
(0.0182257 1.30605 0)
(-0.111124 1.24518 -6.00487e-19)
(-0.147703 2.70472 -7.42546e-20)
(-0.0225308 2.74009 -3.11038e-19)
(-0.105927 2.7331 -1.83115e-21)
(-0.450089 2.16712 -1.6966e-19)
(-0.366556 2.10371 -1.81968e-19)
(-0.173102 1.18775 0)
(-0.131949 1.2092 0)
(0.168738 1.78547 -6.33902e-19)
(0.127807 1.47517 -7.08748e-19)
(0.0931673 1.66578 9.14147e-19)
(0.184023 1.78527 0)
(-0.157795 1.96837 4.71732e-20)
(-0.127058 2.04847 -2.47935e-20)
(-0.159619 2.10727 1.07923e-20)
(-0.437233 2.02929 2.05399e-19)
(-0.250372 2.28419 4.05105e-20)
(-0.265378 2.35294 -2.31183e-19)
(1.02114 0.0228681 -2.99776e-19)
(1.01791 0.0271157 2.99998e-19)
(1.01385 0.0210705 0)
(1.00999 0.0492677 4.33791e-19)
(0.994963 0.0365981 -5.08561e-19)
(0.964066 0.0228192 5.89265e-19)
(1.01034 0.0851968 -5.6169e-20)
(1.04031 -0.00791765 0)
(1.04365 -0.00839948 2.50046e-19)
(1.03503 -0.0154976 -2.51254e-19)
(1.06176 0.0407334 -1.37931e-20)
(1.05636 0.020962 1.22769e-19)
(1.05886 0.0508701 0)
(1.05328 0.0419087 -4.58609e-20)
(1.03948 0.0303995 0)
(1.03544 0.0271457 0)
(1.02746 0.0121043 0)
(1.02573 0.0151155 0)
(1.04776 0.0266442 9.57124e-20)
(1.04519 0.0182171 -2.16923e-19)
(1.05278 0.0245597 -9.62659e-20)
(1.05124 0.0260761 -1.12012e-19)
(1.06207 0.0586279 2.0029e-19)
(1.07932 0.052004 0)
(1.08526 0.0942926 0)
(-0.146856 1.95341 2.36002e-20)
(-0.107714 1.86964 -2.75e-22)
(-0.11869 1.88874 0)
(-0.0873285 1.95868 -2.36274e-20)
(-0.0648521 1.90208 8.75282e-22)
(-0.075067 1.92851 2.85116e-21)
(-0.140933 2.33364 -2.52384e-19)
(-0.157429 2.17131 5.45205e-21)
(-0.202318 2.23758 -3.92841e-20)
(-0.0729184 2.19209 8.26001e-20)
(-0.0838654 2.21508 -9.35019e-20)
(-0.212523 1.76364 -1.29863e-21)
(-0.193838 1.83702 -6.75035e-22)
(0.376074 1.39762 -4.1001e-19)
(0.372854 1.35579 -3.91231e-19)
(0.638275 1.41503 -5.8802e-19)
(0.511069 1.47901 -3.15609e-19)
(0.555674 1.45359 0)
(0.590335 2.40618 1.23856e-19)
(0.654122 2.39413 2.25874e-19)
(0.411268 2.50388 7.92981e-20)
(0.40715 2.55188 -1.75301e-19)
(0.519425 2.51007 2.67289e-19)
(0.548939 2.44677 0)
(0.489192 2.49401 -3.58301e-19)
(0.242035 2.57889 6.03565e-19)
(0.351942 2.5545 -8.23285e-20)
(0.283897 2.63564 -9.0922e-19)
(0.925096 2.37635 2.29863e-19)
(0.828758 2.36798 0)
(1.01032 0.000242889 1.00936e-20)
(1.01476 -0.00575165 -8.24656e-21)
(1.01809 -0.00389946 -1.49252e-19)
(1.01498 -0.000647675 1.49495e-19)
(1.01219 0.00105915 0)
(0.621164 1.26983 0)
(0.628825 1.16704 0)
(0.731396 1.07552 0)
(0.62654 1.1197 0)
(1.18303 2.634 5.6196e-20)
(1.06772 2.37026 0)
(0.840568 2.23496 -1.80353e-21)
(0.822339 2.47956 0)
(0.91605 2.56619 1.74576e-20)
(0.951852 2.52143 -1.16549e-20)
(0.843537 0.14585 0)
(0.813283 0.143304 8.51266e-20)
(0.927984 0.125246 4.36312e-19)
(0.86548 0.116119 -1.74104e-19)
(0.848326 0.0655631 -5.25638e-19)
(1.0402 0.216509 -2.52476e-19)
(0.957662 0.272318 -1.57776e-20)
(0.904138 0.272947 3.97228e-19)
(0.973166 0.199282 2.95024e-19)
(0.937651 0.159175 -5.50243e-19)
(0.911134 0.169971 7.12734e-20)
(0.938107 0.233932 -1.38805e-19)
(0.914756 0.193479 0)
(0.973079 0.157355 2.63675e-19)
(1.01641 0.164337 0)
(1.00994 0.191012 0)
(1.07782 0.110006 8.51201e-20)
(1.04038 0.157003 -1.30518e-20)
(1.03431 0.218815 -4.77115e-20)
(1.07037 0.191577 0)
(1.027 0.0304098 2.26425e-19)
(1.04496 0.0477762 2.6962e-19)
(1.04173 0.0319882 -2.23339e-19)
(1.04278 0.0531442 -1.81602e-19)
(1.02196 0.0548339 -3.04954e-19)
(0.974926 0.125518 0)
(0.989294 0.0784949 0)
(0.968654 0.0426108 -2.12411e-19)
(0.933458 0.0582315 8.82199e-20)
(1.03021 0.0852578 2.55449e-19)
(1.04624 0.110806 -2.60323e-19)
(1.05083 0.137597 2.37886e-19)
(1.017 0.124318 0)
(1.05573 0.0980285 0)
(1.04352 0.0806477 -1.08254e-19)
(1.03962 0.0818518 -2.05177e-19)
(0.578675 1.0817 -9.54228e-20)
(0.619723 1.44014 1.9647e-19)
(1.15758 2.7584 1.00595e-19)
(1.22433 3.09624 -7.07621e-20)
(1.24765 2.73458 5.57806e-19)
(1.28025 2.71852 -3.38373e-19)
(1.20705 2.35445 -8.30861e-21)
(1.21056 2.99982 1.93648e-19)
(1.22862 2.96483 -2.13821e-19)
(1.21651 3.24991 -2.68285e-19)
(1.37903 2.98131 3.71488e-19)
(1.37198 2.89866 0)
(0.523593 0.861088 -1.32884e-20)
(0.159984 1.28244 3.77958e-19)
(0.527225 0.512833 3.56354e-19)
(0.364625 0.281822 3.90779e-19)
(0.550605 0.407156 4.11392e-19)
(0.556499 0.485554 -6.39242e-19)
(0.559497 0.490465 5.24089e-19)
(0.517561 0.442296 -2.14043e-19)
(0.460148 0.378482 4.90665e-19)
(0.777292 0.249421 -1.89372e-19)
(0.730374 0.298277 0)
(0.7265 0.231522 1.08763e-20)
(0.7247 0.513112 1.91847e-19)
(0.692017 0.482976 -7.09705e-19)
(0.620339 0.477997 1.85223e-20)
(0.631 0.460828 0)
(0.657169 0.722697 1.54604e-19)
(0.796446 0.750264 6.2987e-20)
(0.718309 0.832746 -8.14601e-20)
(0.839964 0.786894 -1.90192e-20)
(0.872923 0.831027 1.32965e-20)
(0.881469 0.831683 -1.36202e-20)
(0.814423 0.631342 -2.29378e-19)
(0.889002 0.683819 1.76834e-20)
(0.944245 0.698416 0)
(0.933865 0.676916 -1.73859e-20)
(0.983718 0.311292 6.39157e-20)
(1.10118 0.284623 7.97594e-21)
(1.02434 0.250654 1.03004e-19)
(0.966868 0.344243 -1.46752e-19)
(1.01554 0.404277 0)
(1.06254 0.3925 0)
(0.889102 0.353655 5.02441e-21)
(0.831451 0.28225 0)
(0.85177 0.274469 2.03925e-19)
(0.884579 0.278853 -5.77431e-21)
(0.906499 0.423488 7.85435e-19)
(0.869572 0.48362 1.98714e-19)
(0.871511 0.449987 -2.54661e-19)
(0.800681 0.437099 2.73304e-19)
(0.786173 0.436601 1.85388e-19)
(0.752271 0.418553 -1.82018e-19)
(1.02676 -0.000927288 2.40465e-19)
(1.0199 -0.000123876 0)
(1.01834 0.000825198 1.59785e-19)
(1.02208 -0.00129474 -3.59635e-19)
(1.02193 0.00411959 1.74354e-19)
(1.0206 0.010567 -3.66e-19)
(1.02147 0.010082 0)
(1.02067 0.0108084 -7.72723e-20)
(1.01594 0.00760169 1.93696e-19)
(1.01683 0.010274 -9.76165e-20)
(1.01774 0.00948924 7.19696e-20)
(0.0199858 1.0449 0)
(0.0973503 1.22471 0)
(0.0908329 1.09319 0)
(0.0589326 0.967365 0)
(0.183051 1.3622 -7.57383e-19)
(0.172905 1.33631 2.45426e-19)
(0.171244 1.48558 1.59405e-19)
(0.145448 1.38454 -1.89795e-19)
(0.178 1.51374 5.95145e-19)
(0.196767 1.48078 -4.55677e-19)
(0.227965 1.35064 -2.63195e-20)
(0.238053 1.29807 5.2341e-19)
(0.187625 1.22296 7.57243e-20)
(0.180554 1.22309 7.56236e-20)
(0.104391 2.37436 1.91486e-19)
(0.0947135 2.41645 0)
(0.14996 2.06466 -3.61705e-20)
(0.116093 1.73167 -1.0793e-19)
(0.232 2.057 2.63029e-20)
(0.206348 2.45642 0)
(0.269289 2.40888 -1.30589e-19)
(0.298751 2.41009 9.31262e-20)
(0.223156 2.01621 8.08477e-20)
(0.137144 2.18648 -2.43472e-21)
(0.136723 2.31668 0)
(0.0974981 2.12472 6.28107e-19)
(-0.103676 2.59803 6.3471e-19)
(-0.0451152 2.45899 0)
(0.0239787 2.57625 -3.07913e-20)
(0.0406339 2.41119 -2.85172e-19)
(-0.275394 1.33856 -6.34744e-20)
(-0.276156 1.35178 9.22e-19)
(-0.302079 1.43476 -1.9566e-19)
(-0.36427 1.48142 -3.98545e-19)
(-0.235742 1.41781 0)
(-0.309754 1.4076 0)
(-0.179765 1.46447 -8.15209e-20)
(-0.277536 1.49383 2.65e-20)
(-0.303739 1.41661 0)
(-0.19974 1.31151 -8.27129e-20)
(-0.128196 1.36828 1.42381e-19)
(1.04038 0.00281087 0)
(1.04169 0.000323143 -2.30778e-20)
(1.04514 0.0134971 -1.72439e-19)
(1.05086 0.0107115 0)
(1.05018 0.00802025 0)
(1.03816 0.00468185 -6.60462e-21)
(1.03325 0.00652438 2.83878e-19)
(1.03414 0.0114682 3.43243e-19)
(1.02748 0.0187905 0)
(1.02611 0.0199808 0)
(1.03999 0.020312 1.73492e-19)
(1.03234 0.0235099 0)
(1.02922 0.0226478 0)
(-0.310929 2.00645 0)
(-0.237868 1.85048 -5.81193e-21)
(-0.252937 1.95904 -1.39676e-20)
(-0.260903 1.57336 0)
(-0.306483 1.7984 -3.43132e-20)
(-0.244523 1.7304 -1.76031e-22)
(-0.236003 1.63966 0)
(0.3941 1.68004 0)
(0.371705 1.28682 6.42212e-19)
(0.302157 1.3406 0)
(0.422603 1.27632 -8.37534e-19)
(0.463299 1.44454 0)
(0.443305 1.39021 3.92658e-19)
(1.02649 2.70467 -4.27724e-21)
(0.947798 2.4118 -2.90257e-19)
(0.885191 2.16463 3.32626e-19)
(0.83892 2.36243 1.18585e-19)
(0.839261 2.51919 0)
(0.905773 2.51451 0)
(0.903213 2.37041 0)
(0.888678 2.34555 -4.45513e-19)
(0.691638 2.49444 -2.34854e-20)
(0.799423 2.48699 -1.51903e-20)
(0.807452 2.45893 1.1634e-20)
(0.686182 2.37361 0)
(0.79307 2.36914 0)
(0.751832 2.38017 -2.2743e-19)
(0.768354 2.50224 0)
(0.587449 1.08946 0)
(0.480697 0.939843 -4.5289e-21)
(0.528782 0.970057 -1.53394e-21)
(0.512765 1.06047 0)
(0.512421 1.01683 9.41033e-21)
(0.740572 0.858572 1.18757e-20)
(0.758952 1.00002 0)
(0.731317 0.95521 -5.95541e-20)
(0.608802 1.02213 0)
(0.614444 0.936949 0)
(1.16167 2.77847 5.48723e-20)
(1.1401 2.84278 1.23804e-19)
(0.934375 2.37147 -2.83309e-19)
(0.901738 2.34534 3.53602e-20)
(1.12478 2.74921 0)
(1.07555 2.72001 -4.22645e-20)
(1.0816 2.49455 -7.59177e-20)
(0.975361 2.23151 -3.03652e-20)
(0.487811 1.37172 0)
(0.497896 1.06951 8.40889e-20)
(0.540193 1.14937 0)
(0.856683 0.21872 0)
(0.819638 0.176805 0)
(0.779477 0.163795 0)
(0.849864 0.223704 -3.20694e-19)
(0.798447 0.221283 1.98028e-19)
(0.940638 0.0505868 -1.8134e-19)
(0.95305 0.0999287 0)
(0.925629 0.104912 8.16379e-20)
(0.888024 0.08088 3.34413e-19)
(0.878338 0.0467234 -2.05354e-19)
(1.16692 3.3754 -9.81866e-19)
(1.21274 3.29485 0)
(1.16705 3.40201 -1.9327e-18)
(0.653694 3.56235 1.65926e-18)
(0.880768 3.12758 3.77458e-19)
(0.504323 0.886771 2.29302e-19)
(0.432339 0.875731 0)
(0.361048 0.54518 -8.56432e-20)
(0.453172 0.694427 3.9158e-19)
(0.534813 0.512518 -1.13598e-19)
(0.518616 0.538116 1.32352e-19)
(0.661882 0.528662 2.72568e-19)
(0.688863 0.545425 0)
(0.647977 0.617501 0)
(0.598764 0.549741 0)
(0.941828 0.585761 -5.00434e-20)
(0.87326 0.528468 -1.92146e-19)
(0.89648 0.561423 9.15153e-20)
(0.925465 0.501068 -1.41793e-19)
(1.02873 0.462761 0)
(1.03793 0.555908 -6.79267e-21)
(0.823225 0.391319 -4.11469e-19)
(0.826576 0.374927 -4.76503e-19)
(0.779284 0.389728 3.22603e-19)
(0.773564 0.357178 -3.63679e-19)
(0.825785 0.308546 -2.7028e-19)
(0.779632 0.313062 3.3247e-19)
(1.02589 0.00518722 -1.79405e-19)
(1.02571 0.00510489 3.64156e-19)
(1.03113 -0.000848156 2.28105e-19)
(1.03205 -0.000163281 -2.75616e-19)
(1.03423 0.00252184 0)
(1.03088 0.003896 -4.43944e-19)
(0.15585 1.7393 -7.74851e-20)
(0.15598 1.68398 0)
(0.147689 1.74535 -5.31275e-19)
(0.138069 1.72449 4.85755e-19)
(0.163189 1.56189 -2.94021e-19)
(0.236833 1.58192 0)
(-0.468696 2.0146 0)
(-0.420851 1.72271 3.48747e-20)
(-0.390423 1.69402 -3.161e-20)
(-0.327727 1.82266 -1.10431e-20)
(-0.328938 2.02842 3.85084e-20)
(-0.384654 2.04689 -3.36761e-20)
(0.48244 1.38422 4.11172e-19)
(0.476822 1.38709 -4.41519e-19)
(0.435254 1.2763 4.14032e-19)
(0.426351 1.29653 -2.51103e-20)
(0.612975 1.27886 0)
(0.530818 1.37014 5.35952e-19)
(0.552981 1.39677 -5.20342e-19)
(0.443512 1.26118 -3.98398e-19)
(0.488569 1.21885 0)
(0.5421 1.17869 0)
(0.661353 2.45441 3.44807e-20)
(0.669384 2.4724 5.411e-19)
(0.719859 2.489 -3.71968e-19)
(0.62826 2.47418 -1.20581e-19)
(0.567606 2.57159 9.95986e-20)
(0.51598 2.54178 -3.00194e-19)
(0.961549 2.37398 -1.79121e-19)
(1.00596 2.39653 0)
(0.89988 2.14565 -2.48627e-19)
(1.04431 2.70009 0)
(1.04542 2.68736 0)
(0.624879 2.29571 2.40459e-19)
(1.0463 3.17661 4.81909e-19)
(0.917855 3.04602 -4.28321e-19)
(0.295344 0.967076 0)
(0.350276 0.840383 -1.56127e-19)
(0.496253 0.791925 -7.08627e-20)
(0.408243 2.04548 0)
(0.474642 2.79344 -2.6277e-19)
(0.434926 2.55863 0)
(0.673797 0.662232 -3.20689e-19)
(0.743732 0.654577 4.07638e-19)
(0.771458 0.606412 -3.97635e-19)
(0.671128 0.631691 -4.73444e-20)
(0.72077 0.587131 -1.92528e-19)
(1.00666 2.78407 -3.66356e-19)
(1.03987 2.83935 2.85875e-19)
(0.651477 2.19275 5.5403e-20)
(0.606349 1.73955 -7.02603e-20)
(0.704353 1.92743 1.06494e-19)
(0.991029 2.46698 -6.9375e-20)
(0.993744 2.46466 -1.60416e-19)
(0.671658 1.87916 -5.01e-21)
(0.457805 1.35241 -7.73302e-20)
)
;

boundaryField
{
    wall-4
    {
        type            noSlip;
    }
    velocity-inlet-5
    {
        type            fixedValue;
        value           uniform (1 0 0);
    }
    velocity-inlet-6
    {
        type            fixedValue;
        value           uniform (0 3 0);
    }
    pressure-outlet-7
    {
        type            zeroGradient;
    }
    wall-8
    {
        type            noSlip;
    }
    frontAndBackPlanes
    {
        type            empty;
    }
}


// ************************************************************************* //
