/*--------------------------------*- C++ -*----------------------------------*\
| =========                 |                                                 |
| \\      /  F ield         | OpenFOAM: The Open Source CFD Toolbox           |
|  \\    /   O peration     | Version:  4.0                                   |
|   \\  /    A nd           | Web:      www.OpenFOAM.org                      |
|    \\/     M anipulation  |                                                 |
\*---------------------------------------------------------------------------*/
FoamFile
{
    version     2.0;
    format      ascii;
    class       volScalarField;
    location    "55";
    object      p;
}
// * * * * * * * * * * * * * * * * * * * * * * * * * * * * * * * * * * * * * //

dimensions      [0 2 -2 0 0 0 0];

internalField   nonuniform List<scalar> 
918
(
0.557547
1.19021
0.00127164
0.556961
-0.0122037
1.15719
-0.505797
0.684792
0.537731
-0.105971
-0.0402993
0.536451
1.01802
0.783725
-1.12407
-0.00722081
0.653371
-0.383553
0.536816
-0.050909
0.710225
0.544284
0.547311
0.537891
0.60343
0.758309
0.899182
0.0216078
0.00874041
0.0046743
-0.0120607
-0.0392602
-0.0328304
1.04084
1.09192
1.11462
0.50564
0.332916
-0.371744
-0.441955
-0.433995
-0.543631
0.680077
0.67827
-0.201442
0.687665
0.69119
0.524803
0.537098
0.538004
0.539044
0.538018
0.539403
0.406385
-0.109175
-0.141438
-0.0861244
-0.0772929
0.0586526
-0.040874
-0.043365
-0.0384208
-0.0384532
0.455129
0.530952
0.5279
0.54175
0.552005
1.12976
1.10168
1.12782
1.04152
1.05797
0.99601
0.968584
0.804341
0.826366
0.769133
0.754694
-1.55765
-2.51205
-0.5326
-0.281277
-0.0103983
-0.00492362
0.00145837
0.64947
0.649921
0.653297
0.657564
1.08137
-0.381437
-0.479756
0.536954
0.53576
0.544099
0.544798
0.540816
0.539907
-0.0406271
-0.0365203
-0.0453908
-0.0474094
-0.0472924
0.699295
0.699058
0.538423
0.535431
0.558966
0.580021
0.572077
0.280433
0.610131
0.624616
0.589274
0.749815
0.744496
0.753145
0.872909
0.83647
0.936063
0.959359
0.0169329
0.000561996
-0.0123437
-0.0184482
-0.0164309
0.501496
0.494081
0.521193
0.509055
0.511544
0.249168
0.115133
0.418278
0.443471
-0.289256
-0.352913
-0.42965
-0.458636
-0.567075
0.611818
0.672692
0.669565
-0.214592
-0.141865
-0.273599
-0.068141
-0.130115
0.515104
0.52209
0.517103
0.532618
0.527093
0.529053
0.541358
0.538431
0.53999
0.46877
0.592548
0.332606
0.297665
-0.245646
-0.159062
-0.246511
-0.0647688
-0.0602736
0.07239
0.0976674
0.0457348
0.0341474
-0.0540675
-0.0460306
-0.049637
-0.0370436
-0.035216
0.44794
0.436823
0.467767
0.475279
0.519697
0.521045
0.524973
0.523183
0.919419
0.941889
0.9493
0.922958
-3.50502
-6.29274
0.04452
0.181482
-0.00580778
-0.00822415
0.00262716
-0.00536092
0.0010694
-0.00175197
-0.00173337
-0.00311382
0.0013161
0.00330884
0.642747
0.643485
1.00231
1.00743
0.979639
0.931785
0.525133
0.527216
0.532732
0.528605
-0.035273
-0.0358149
-0.0355751
0.693354
0.697498
0.696118
0.24238
0.15346
0.331008
0.359818
0.636203
0.624814
0.63476
0.650895
0.686671
0.96681
0.984956
0.983218
0.991443
1.03542
1.05178
1.01719
0.481064
0.49098
0.485964
0.524318
0.522078
0.522987
0.518749
0.520095
0.518017
-0.035833
-0.417031
0.492056
0.509833
0.493135
0.497004
0.691635
0.769598
0.65838
0.66463
0.662824
0.000320651
-0.0579863
0.253428
0.219958
0.387874
0.424088
0.40315
0.890723
0.850737
0.90093
0.874343
0.83544
0.862043
-0.368718
-1.87204
-0.989086
0.532066
0.346181
0.433778
0.01601
-0.00107992
0.00354575
1.00079
1.07479
0.648423
0.8219
0.825653
0.720915
0.750928
0.810468
0.735604
0.770989
0.805192
0.783719
0.568345
0.50543
0.520793
0.838682
0.89432
0.124255
0.0642291
0.020196
0.116195
0.17304
0.147335
1.03575
0.948525
1.01905
0.535189
0.535903
-0.00247814
-0.0163874
0.540119
0.540171
-0.0105687
0.000915327
0.416301
-0.83277
0.10634
0.528675
0.518669
0.535747
-0.0887668
0.358299
-0.0407231
0.0531144
-0.00231148
0.533039
0.466137
0.425599
0.00467106
-0.0160998
-0.0422323
-0.21557
0.53286
0.531166
0.535213
0.536165
0.53684
-0.0146169
-0.0106135
-0.00780599
-0.0402865
-0.0359413
-0.0454279
0.499816
0.518545
-0.16848
0.535355
0.537485
0.537304
0.530546
0.536184
0.53443
-0.00609006
-0.0124859
-0.0144533
0.223945
0.353208
0.656668
0.74478
0.628387
0.4036
0.167668
0.559576
0.62289
0.528491
0.682105
0.668982
0.684137
0.171644
0.0213821
0.180414
0.121529
0.526533
0.525232
0.516924
0.513912
0.530608
0.528716
0.533279
0.530287
0.533238
0.534627
-0.0467418
-0.0710734
-0.0840011
-0.152529
0.313005
0.57493
0.255669
0.286188
0.146007
-0.0359584
-0.0365372
-0.0399262
-0.0466178
0.00677309
-0.0170588
0.0481549
0.0489254
0.0213516
-0.00519694
-0.00100442
-0.0118336
-0.00854204
0.526021
0.524533
0.530698
0.539917
0.475725
0.479499
0.444596
0.465179
0.450514
0.389617
0.424789
0.399967
-0.00177152
0.00826169
0.000820472
-0.013011
-0.00962621
-0.0273077
-0.0245344
-0.020606
-0.016282
-0.0233867
-0.0373571
-0.0379251
-0.173084
-0.287989
0.989096
0.912734
0.133739
0.522023
0.528466
0.525235
0.530124
0.533252
0.534062
0.531784
0.528338
0.518916
0.520474
0.517248
0.518076
-0.100849
-0.241663
-0.0693527
-0.141607
0.14402
0.627834
0.365149
0.301948
0.296843
0.524119
0.922133
0.707977
0.683026
0.69516
-0.342
0.0495082
-0.277269
0.339605
0.165016
0.657637
0.705313
0.725251
0.674439
0.627954
-0.104348
0.555279
-0.0669737
-0.0164005
0.183628
0.0633712
0.679774
0.653857
0.657185
0.674426
0.690765
0.660215
0.644603
0.639462
0.670698
0.673336
0.491275
0.254953
0.206385
0.167941
0.643543
0.526975
0.58064
0.496702
0.521694
0.524323
0.522949
0.504625
0.512175
0.507726
0.514173
0.517628
0.526321
0.526766
0.522077
0.524213
-0.0513912
-0.0548455
-0.0281296
-0.137485
-0.129644
-0.192013
-0.0631178
0.0753252
0.0364411
0.235934
0.341548
0.0526279
-0.0586761
-0.031516
0.0096446
0.179718
0.205948
0.0776065
0.165954
0.155138
0.138167
0.239713
0.244031
-0.0213916
-0.0253342
-0.0276022
-0.0297036
0.0242724
0.0943242
0.104224
0.00170926
-0.00437119
-0.0335382
-0.0332985
-0.018179
-0.0224517
-0.0190096
0.014915
-0.046418
-0.0142658
0.000515215
0.00493371
0.00209857
-0.00347256
0.518227
0.520654
0.520224
0.526592
0.544865
0.560263
0.518099
0.497824
0.48866
0.49166
0.464679
0.474969
0.470654
0.484385
0.505511
0.515087
0.512315
0.515109
0.497653
0.499332
0.485821
0.489542
0.464406
0.445469
0.433621
-0.0359357
0.00254322
-0.00553572
-0.0320917
-0.00276271
-0.0150766
-0.00448901
0.0151124
-0.00116967
-0.00379472
-0.0145268
-0.0195104
-0.0189079
-0.0744189
0.0114241
-0.183187
-0.22002
-0.291742
0.890812
1.01485
0.81139
0.584535
0.603277
0.846592
0.931456
0.545545
0.736534
0.760252
0.586867
0.853208
0.526849
0.526453
0.524054
0.523533
0.52475
-0.00686864
0.0984225
0.0987043
0.160294
0.275998
0.38822
0.317803
0.192963
0.323612
0.326368
0.620072
0.632405
0.587964
0.612183
0.611949
0.427271
0.503228
0.555411
0.513127
0.565475
0.586443
0.541833
0.574194
0.524376
0.479002
0.474927
0.425832
0.445429
0.421783
0.404741
0.516639
0.493916
0.504491
0.494711
0.513953
0.539731
0.535387
0.564659
0.576921
0.498246
0.454054
0.463336
0.493734
0.454668
0.469701
0.48601
0.231279
0.13269
0.215171
-0.0723058
0.00144367
-0.0121968
-0.0601937
-0.0105124
0.274344
-0.418853
-0.394947
-1.02373
0.50088
0.956387
0.624024
0.596859
0.687861
0.669877
0.674566
0.69109
0.694998
0.632473
0.646434
0.649343
0.612287
0.634724
0.653911
0.651129
0.525433
0.388328
0.385546
0.335997
0.206185
0.244767
0.444395
0.367101
0.29178
0.29261
0.460372
0.347431
0.41642
0.451793
0.38321
0.337415
0.540577
0.605508
0.597774
0.572351
0.487368
0.500814
0.524786
0.559377
0.585164
0.615803
0.513655
0.51955
0.520788
0.518276
0.515537
0.518568
0.518789
0.52133
0.52201
0.524988
0.524025
-0.0412442
-0.0291534
-0.0423701
-0.0505242
-0.0178555
-0.0211788
0.0217449
0.00776207
-0.00820011
-0.00227136
-0.0280528
-0.0323841
-0.0275829
-0.0185709
0.100891
0.113386
0.0967122
0.0572214
0.249537
0.379676
0.453737
0.329065
0.221759
0.245092
0.265581
-0.00901078
0.0182075
0.00511195
0.0441636
0.0357781
-0.0285782
-0.0318218
-0.0295089
-0.0227532
-0.0138149
-0.0295974
-0.0315349
-0.0232232
-0.0278143
-0.0289688
-0.0316808
0.500079
0.493574
0.495288
0.489121
0.487834
0.502162
0.50639
0.508376
0.513852
0.516173
0.506221
0.512039
0.515854
-0.00433468
-0.0271308
-0.031089
-0.01971
-0.0223847
-0.0206695
-0.0227166
0.122666
0.0512065
0.0559303
0.008854
-0.122151
-0.0644554
0.490793
0.490216
0.480768
0.720359
0.569744
0.490356
0.587644
0.693135
0.274837
0.472343
0.3068
0.888089
0.783913
0.930355
0.541842
0.243635
0.404539
0.450312
0.261876
0.33597
0.32724
0.215546
0.246741
0.282956
0.382705
0.264551
0.240793
-0.00172217
0.18828
0.300968
0.282761
0.408109
0.469518
0.264779
0.185136
0.139697
0.605604
0.624768
0.639526
0.611687
0.632907
0.577736
0.567791
0.585384
0.594476
0.589394
-0.751517
-0.458139
-1.40414
-0.724263
-0.270833
0.531149
0.500163
0.767119
0.648433
0.693171
0.678638
0.637794
0.606166
0.626819
0.652413
0.34864
0.460036
0.43519
0.44023
0.341888
0.273074
0.571542
0.56704
0.600566
0.624129
0.595199
0.625337
0.511471
0.511174
0.510671
0.506941
0.505213
0.507547
0.0606014
0.0293719
0.06543
0.0459662
0.0228059
0.0111633
-0.000372353
-0.00991676
-0.0170456
-0.0173657
-0.00457847
-0.000612179
0.16987
0.1086
0.0282108
0.0583815
-0.00244881
-0.0716164
-0.089465
0.0135793
0.10948
0.0998625
0.404438
0.654656
0.47462
0.641986
0.483813
0.539611
0.46957
0.46117
0.486996
0.379366
0.459647
0.240937
-0.265742
-0.174753
0.7896
0.802539
0.580937
0.402534
0.171495
0.353154
0.545522
0.477697
0.514322
0.583225
0.571796
0.0222987
0.0829962
0.361135
0.588424
0.237934
0.228949
0.222893
0.403935
0.3241
)
;

boundaryField
{
    wall-4
    {
        type            zeroGradient;
    }
    velocity-inlet-5
    {
        type            zeroGradient;
    }
    velocity-inlet-6
    {
        type            zeroGradient;
    }
    pressure-outlet-7
    {
        type            fixedValue;
        value           uniform 0;
    }
    wall-8
    {
        type            zeroGradient;
    }
    frontAndBackPlanes
    {
        type            empty;
    }
}


// ************************************************************************* //
