/*--------------------------------*- C++ -*----------------------------------*\
| =========                 |                                                 |
| \\      /  F ield         | OpenFOAM: The Open Source CFD Toolbox           |
|  \\    /   O peration     | Version:  4.0                                   |
|   \\  /    A nd           | Web:      www.OpenFOAM.org                      |
|    \\/     M anipulation  |                                                 |
\*---------------------------------------------------------------------------*/
FoamFile
{
    version     2.0;
    format      ascii;
    class       volScalarField;
    location    "38";
    object      p;
}
// * * * * * * * * * * * * * * * * * * * * * * * * * * * * * * * * * * * * * //

dimensions      [0 2 -2 0 0 0 0];

internalField   nonuniform List<scalar> 
918
(
0.604713
1.25375
0.00734806
0.603939
-0.00548642
1.22139
-0.451603
0.766375
0.584581
-0.0404879
0.0199089
0.579943
1.08209
0.847651
-1.07166
0.0362038
0.716657
-0.330024
0.583951
0.0262994
0.802815
0.591029
0.594055
0.584451
0.649093
0.831052
0.962563
0.019862
-0.00080284
-0.00627502
0.00681185
-0.0213479
0.000160694
1.10475
1.15537
1.17795
0.553145
0.388518
-0.298524
-0.379677
-0.371537
-0.497281
0.760375
0.760732
-0.128354
0.768604
0.777373
0.572147
0.58392
0.584859
0.585944
0.584899
0.586323
0.461914
-0.0478973
-0.0786656
-0.0215178
-0.00935847
0.106688
0.0243086
0.023194
0.0260432
0.0241046
0.503372
0.575719
0.573
0.58515
0.5943
1.1925
1.16353
1.18914
1.1061
1.12096
1.05978
1.03179
0.868658
0.890118
0.833752
0.822233
-1.49351
-2.45289
-0.485247
-0.233003
0.000736594
0.038251
0.0497181
0.707278
0.705626
0.716844
0.730684
1.14015
-0.314863
-0.46351
0.583756
0.582732
0.590853
0.591211
0.588375
0.586457
0.0316763
0.0321323
0.0143759
0.0221779
0.0196794
0.791346
0.790062
0.586132
0.582727
0.599779
0.619345
0.613815
0.334977
0.651503
0.660914
0.649956
0.819513
0.814406
0.822505
0.936914
0.900476
1.00018
1.02338
0.0101658
0.00349428
0.0267232
0.00639708
0.0164383
0.549068
0.541074
0.567997
0.556528
0.558954
0.305501
0.172543
0.4815
0.509659
-0.211328
-0.283497
-0.373051
-0.402577
-0.510184
0.673268
0.749398
0.748883
-0.139871
-0.0737562
-0.203677
0.0091406
-0.0554902
0.562471
0.569463
0.563811
0.579494
0.574216
0.575812
0.588222
0.585291
0.586811
0.523154
0.626085
0.393258
0.352339
-0.189521
-0.0926191
-0.190809
0.00386756
0.00893357
0.124186
0.15235
0.0981835
0.090735
0.0151989
0.0229754
0.0207591
0.023411
0.0256338
0.498116
0.488223
0.516776
0.524001
0.566385
0.567316
0.570403
0.568986
0.98207
1.00443
1.01303
0.986728
-3.46999
-6.52511
0.0927258
0.233142
0.0107432
0.0116402
0.00724298
0.017065
0.00911823
0.00314957
0.064895
0.0566499
0.0483729
0.0587405
0.69123
0.692514
1.04548
1.03786
1.00891
0.951571
0.571951
0.574074
0.57958
0.575074
0.0278628
0.0341672
0.0339688
0.777875
0.785888
0.783938
0.298504
0.212822
0.385388
0.413612
0.678536
0.666432
0.67728
0.711128
0.74716
1.02975
1.04774
1.04789
1.05603
1.10117
1.11415
1.07987
0.529478
0.5389
0.534474
0.571136
0.568861
0.569754
0.565482
0.566778
0.564156
0.00248492
-0.35806
0.571277
0.587336
0.565835
0.573667
0.744945
0.812595
0.730466
0.740032
0.739338
0.0763772
0.0153019
0.30867
0.277385
0.43951
0.475005
0.452329
0.95305
0.914898
0.964953
0.937875
0.89851
0.923868
-0.397054
-1.63763
-0.896992
0.592163
0.400916
0.489641
0.0668217
0.0648825
0.0579901
1.02669
1.11939
0.673748
0.86115
0.909811
0.786846
0.817314
0.873902
0.798739
0.83272
0.866835
0.847843
0.630309
0.58533
0.589518
0.875292
0.927737
0.192971
0.142178
0.0862783
0.169579
0.225036
0.19698
1.07104
0.982187
1.05442
0.582336
0.582943
0.0203767
0.0387676
0.587129
0.587323
0.00573339
0.0085638
0.476043
-0.768123
0.171483
0.575266
0.565594
0.58253
-0.0320571
0.426783
0.0239133
0.11543
0.063291
0.577596
0.513989
0.475794
0.0381191
0.031656
0.0273626
-0.166222
0.579849
0.578001
0.58204
0.58309
0.583725
0.0295781
0.03117
0.0313497
0.0336499
0.0334226
0.0323606
0.547245
0.56451
-0.112579
0.582162
0.584364
0.584174
0.577038
0.582898
0.580823
0.0452582
0.0127029
0.0249092
0.286665
0.409325
0.719957
0.820535
0.690112
0.457005
0.206159
0.621894
0.686655
0.592563
0.746041
0.740644
0.762125
0.241579
0.0834042
0.243361
0.182762
0.573461
0.571847
0.563992
0.560953
0.577478
0.575657
0.580071
0.577021
0.57993
0.581374
0.0133923
-0.00885558
-0.0254488
-0.0950358
0.382649
0.649779
0.31514
0.356721
0.200429
0.0253843
0.0275131
0.026497
0.0217425
0.0685626
0.0454812
0.110805
0.110637
0.0854032
0.0635908
0.0580806
0.0449839
0.0427255
0.571051
0.569405
0.575824
0.58418
0.523371
0.527131
0.492879
0.513083
0.498491
0.440737
0.475492
0.450719
0.027368
0.0442114
0.0195544
0.0322076
0.0329932
0.0450792
0.0385946
0.0415956
0.0398955
0.0355834
0.0308994
0.0313397
-0.124264
-0.23643
1.04264
0.97576
0.172065
0.568845
0.575415
0.572034
0.577027
0.580093
0.580948
0.578715
0.575289
0.565112
0.566908
0.563383
0.564025
-0.0448941
-0.189164
-0.0197987
-0.0819383
0.179689
0.673241
0.420721
0.349955
0.350554
0.575922
0.994162
0.760117
0.748235
0.786141
-0.305921
0.0728569
-0.242265
0.3483
0.171205
0.718474
0.770012
0.793541
0.738575
0.691026
-0.199488
0.589649
-9.46271e-05
0.044731
0.24594
0.136086
0.76506
0.724593
0.73101
0.749761
0.770806
0.728008
0.70943
0.706754
0.74579
0.750419
0.550217
0.321453
0.266534
0.233275
0.709038
0.589818
0.643528
0.556829
0.568311
0.571101
0.569631
0.552039
0.559388
0.555037
0.560981
0.564177
0.57346
0.574017
0.569062
0.571339
0.0168133
0.0132472
0.0388003
-0.0817203
-0.0715774
-0.144195
-0.00147312
0.120482
0.0880712
0.287626
0.367714
0.096522
-0.0012866
0.0251277
0.0478315
0.223327
0.280642
0.135615
0.217766
0.211228
0.193401
0.309393
0.305963
0.0385841
0.0312805
0.035456
0.034481
0.0837205
0.152042
0.169514
0.058055
0.053741
0.0273059
0.024656
0.0348627
0.0353125
0.0360007
0.0759849
-0.0252772
0.0283489
0.0531921
0.0640018
0.0576333
0.0470096
0.56404
0.566018
0.56581
0.57386
0.590406
0.60613
0.564502
0.545573
0.536309
0.539059
0.512548
0.523039
0.5184
0.531427
0.551924
0.560965
0.559288
0.561953
0.545066
0.546594
0.533524
0.537022
0.51431
0.495656
0.483563
0.028414
0.0571102
0.072548
0.0196093
0.0524092
0.036536
0.0566317
0.0704924
0.0550577
0.0435399
0.0438387
0.0433411
0.0429718
-0.0253106
0.0595826
-0.131503
-0.166839
-0.241795
0.945518
1.05152
0.868195
0.636556
0.650008
0.894368
0.976315
0.607405
0.778998
0.808331
0.645237
0.891611
0.573896
0.573451
0.570996
0.570524
0.571861
0.0453934
0.152238
0.151993
0.215399
0.325309
0.447095
0.356892
0.23063
0.362884
0.35379
0.667448
0.684501
0.633867
0.657721
0.656716
0.483814
0.561267
0.615742
0.570759
0.61449
0.634469
0.599017
0.625742
0.57535
0.529586
0.530208
0.477875
0.491842
0.471093
0.454152
0.563658
0.540632
0.550953
0.541976
0.56253
0.585758
0.580391
0.612625
0.623563
0.546556
0.505624
0.512748
0.543882
0.505746
0.519951
0.534467
0.27326
0.203511
0.239928
-0.0492201
0.0357662
-0.0403301
-0.0720178
0.0448635
0.343483
-0.396356
-0.457838
-1.01395
0.532851
1.05935
0.720409
0.664095
0.767479
0.743027
0.744477
0.775502
0.778516
0.699618
0.717029
0.723833
0.675343
0.697288
0.727294
0.722883
0.576301
0.432776
0.42419
0.387288
0.264833
0.303038
0.505452
0.419538
0.346476
0.361254
0.521846
0.415773
0.479945
0.508471
0.429135
0.402476
0.598316
0.669209
0.658044
0.630925
0.551971
0.563554
0.593079
0.627111
0.652415
0.688732
0.560526
0.566469
0.567754
0.565291
0.562416
0.565284
0.565443
0.568057
0.568846
0.571939
0.570886
0.0241204
0.0351087
0.0234197
0.0135877
0.0377493
0.0344437
0.0855501
0.0718657
0.0534718
0.0600735
0.0331984
0.0331641
0.0378986
0.0457023
0.159118
0.160608
0.142769
0.110723
0.290693
0.429258
0.492868
0.370835
0.279582
0.305436
0.319198
0.0414772
0.0711222
0.0598122
0.0970844
0.0934501
0.0340073
0.0336156
0.0326366
0.0339622
0.0465954
0.028263
0.0341025
0.0402534
0.0317631
0.0331549
0.0332919
0.548135
0.541752
0.542025
0.536695
0.535866
0.548622
0.552979
0.555333
0.560694
0.562448
0.553166
0.558362
0.561903
0.0538609
0.032512
0.0170298
0.0465064
0.0427161
0.0453961
0.0447109
0.174168
0.1046
0.1032
0.0593132
-0.0717901
-0.01408
0.541154
0.539458
0.544273
0.767798
0.620948
0.545171
0.646356
0.746283
0.321309
0.513522
0.349365
0.931523
0.822291
0.967751
0.577585
0.280769
0.440137
0.498241
0.287775
0.365471
0.368717
0.27023
0.298445
0.321041
0.424712
0.315174
0.296834
0.0468876
0.242787
0.360517
0.346702
0.472151
0.539532
0.29804
0.224889
0.194024
0.657605
0.677954
0.702067
0.668152
0.693903
0.622496
0.611254
0.62988
0.638547
0.634209
-0.739309
-0.448554
-1.36328
-0.653244
-0.214276
0.563524
0.528778
0.808229
0.694019
0.753568
0.739375
0.70894
0.672834
0.684797
0.7171
0.418598
0.52419
0.500727
0.504404
0.397391
0.341993
0.638734
0.630584
0.670242
0.693183
0.659826
0.694915
0.558378
0.558069
0.557505
0.554273
0.55277
0.55478
0.120164
0.0875124
0.132117
0.110676
0.0861061
0.0702978
0.0614577
0.0550153
0.0456968
0.0411048
0.0531211
0.0554618
0.205558
0.144752
0.0766138
0.103712
0.0428151
-0.0262568
-0.0452673
0.0590608
0.151203
0.152142
0.458301
0.696111
0.516836
0.686554
0.55337
0.584633
0.535779
0.532472
0.559664
0.441655
0.51635
0.325755
-0.207819
-0.0890786
0.789929
0.853783
0.628103
0.498375
0.208378
0.338858
0.603866
0.529972
0.572821
0.644139
0.635114
0.0547995
0.084011
0.41491
0.61627
0.285803
0.219407
0.23466
0.397382
0.351001
)
;

boundaryField
{
    wall-4
    {
        type            zeroGradient;
    }
    velocity-inlet-5
    {
        type            zeroGradient;
    }
    velocity-inlet-6
    {
        type            zeroGradient;
    }
    pressure-outlet-7
    {
        type            fixedValue;
        value           uniform 0;
    }
    wall-8
    {
        type            zeroGradient;
    }
    frontAndBackPlanes
    {
        type            empty;
    }
}


// ************************************************************************* //
