/*--------------------------------*- C++ -*----------------------------------*\
| =========                 |                                                 |
| \\      /  F ield         | OpenFOAM: The Open Source CFD Toolbox           |
|  \\    /   O peration     | Version:  4.0                                   |
|   \\  /    A nd           | Web:      www.OpenFOAM.org                      |
|    \\/     M anipulation  |                                                 |
\*---------------------------------------------------------------------------*/
FoamFile
{
    version     2.0;
    format      ascii;
    class       surfaceScalarField;
    location    "38";
    object      phi;
}
// * * * * * * * * * * * * * * * * * * * * * * * * * * * * * * * * * * * * * //

dimensions      [0 3 -1 0 0 0 0];

internalField   nonuniform List<scalar> 
1300
(
3.75095
5.62643
-2.99259
3.75095
-7.3125
5.62643
-4.45137
4.45137
-0.895298
0.895298
1.87647
1.87449
-3.01958
3.01958
-2.44198
2.44198
-2.54967
2.54967
-5.24649
5.24649
-5.06874
5.06874
4.66105
-4.66105
-6.11014
6.11014
-1.25233
1.25233
-3.88605
3.88605
3.16876
-3.16876
-2.31257
2.31257
-0.242624
0.242624
-0.553145
4.3041
3.19781
3.19781
-2.02822
2.02822
-4.86503
4.86503
6.2177
-6.2177
4.7936
-4.7936
-1.80101
-2.06364
1.63887
-11.3724
-5.67363
-5.67363
-8.44022
8.44022
-2.81379
2.81264
2.94437
-2.94437
-1.86169
1.86169
-4.36612
-0.0852512
-4.36612
4.4588
-0.00742789
4.4588
-0.989559
0.0942608
-0.989559
3.92612
-3.92612
0.768427
0.126871
0.768427
3.06504
-3.06504
-1.87716
3.75362
1.8738
-1.87178
6.17588
-1.87917
3.75366
-5.94904
5.94904
-3.22125
0.201669
-3.22125
2.85102
0.168569
2.85102
-6.75854
6.75854
-2.53789
0.0959101
-2.53789
2.38398
0.0580035
2.38398
2.86744
-2.86744
-2.65242
0.102753
-2.65242
2.43654
0.113126
2.43654
0.353681
5.27275
-5.98011
8.79275
-5.27275
0.0262575
5.20833
0.0381652
5.20833
-5.10589
0.0371498
-5.10589
5.01129
0.0574458
5.01129
4.73719
-0.0761402
4.73719
-4.78532
0.124271
-4.78532
-3.76622
-4.23443
-6.27277
0.162624
-6.27277
-1.24748
-0.00484751
-1.24748
1.20956
0.0427665
1.20956
-3.62052
3.62052
-4.23261
0.346562
-4.23261
3.12264
0.0461175
3.12264
1.86902
1.88193
5.61998
-5.61998
2.45122
-2.34352
0.0309451
-2.34352
-2.31213
-2.48148
2.31213
0.000444467
-0.494894
0.25227
-0.494894
3.16008
0.0377261
3.16008
2.28307
0.153475
-2.28307
0.254849
3.22792
-3.22792
1.36171
0.666506
1.36171
-5.56678
5.56678
4.95376
0.0575311
-4.95376
0.0887376
6.15669
0.0610035
6.15669
-6.19977
-0.0179232
-6.19977
2.72494
-4.78858
-2.37338
5.89098
0.219165
-5.89098
0.217347
2.91454
0.0298276
2.91454
-2.91901
2.91901
-2.98388
0.0395121
-2.98388
-2.24606
0.38437
-2.24606
1.57583
0.285856
1.57583
-4.23387
-0.132248
-4.23387
-4.37424
0.141633
4.37424
0.0845507
1.17093
-1.17093
-1.10075
0.111191
-1.10075
-4.07695
-0.156922
4.07695
-0.150822
-3.77504
-0.151085
-3.77504
-3.02389
0.0400142
3.02389
0.041151
3.11313
0.0469565
-3.11313
0.048081
-1.87089
3.75282
-1.88006
3.75386
-5.57456
-0.374481
-5.57456
6.25538
-0.306335
6.25538
3.56889
0.317163
-3.56889
0.347633
2.72029
0.130721
2.72029
-6.72808
-0.030456
-6.72808
6.73521
0.0233295
6.73521
2.62083
0.0994617
-2.62083
0.0829439
2.36896
0.0150191
2.36896
2.88392
-0.0164849
2.88392
-2.86698
-0.00045436
-2.86698
2.79795
-2.79795
2.72917
0.0687807
-2.72917
0.0767514
-11.1329
11.115
-0.0352973
-11.0976
5.17303
5.17303
4.15194
0.58525
4.15194
-4.99985
0.214527
-4.99985
3.19757
-5.57096
3.17084
-6.93705
4.79865
-16.1711
4.34403
-8.57846
6.56638
-6.56638
6.42177
0.144608
-6.42177
0.149
-1.27844
0.0309541
-1.27844
-3.02124
-0.599278
-3.02124
4.26924
-0.648724
4.26924
-3.02777
3.02777
-3.07673
0.0489672
3.07673
0.0459084
2.36869
0.000267575
-2.36869
0.02517
0.63867
0.129757
-0.63867
0.143776
3.4065
-0.178577
3.4065
-3.04376
-0.184162
-3.04376
-1.31477
0.0363324
1.31477
0.0469416
-5.81675
0.249974
-5.81675
-11.1908
0.0931405
-11.1526
-6.10663
-6.10663
2.33359
11.1263
-2.8884
0.0214113
2.8884
0.0261445
2.97433
0.0534391
-2.97433
0.0553223
-2.86036
0.0624098
2.86036
0.0586446
-2.63093
0.384874
-2.63093
-1.16381
1.16381
-1.34047
0.176665
1.34047
0.235362
1.40568
-0.23475
1.40568
1.16869
0.0408796
-1.16869
0.0679353
-3.66337
-0.111674
-3.66337
6.48784
-0.232466
6.48784
-2.93833
-0.105432
2.93833
-0.0544017
-0.0333393
11.1483
-5.13969
0.0337993
5.13969
-11.2093
11.2431
-3.25852
0.627586
3.25852
0.89342
5.28971
0.277063
-5.28971
0.289865
6.67933
0.0558808
-6.67933
0.112949
-2.54195
-0.479293
-2.54195
-5.00819
-0.566374
5.00819
-0.738946
-11.4741
-0.20354
11.6777
-11.4167
6.02029
0.136405
-6.02029
11.3795
-1.09582
-0.0751104
1.09582
0.0679882
1.70491
-0.299233
1.70491
3.5723
-0.165806
-3.5723
-0.0910638
-6.64081
-0.0872661
6.64081
-0.152971
-2.10183
-0.440117
2.10183
-0.396916
-4.26688
4.3046
1.909
-2.48952
-2.29906
-4.971
1.85154
1.90128
4.30275
-10.1696
-6.0014
-9.9523
7.26026
-6.97039
-9.27307
9.19693
7.62218
-7.77326
-5.78709
5.833
6.48258
-6.44143
1.87871
1.87491
7.86048
-7.65881
-15.6581
15.2836
7.44893
-7.35302
15.8272
-15.8577
-17.8953
17.9512
-5.71439
5.81714
-6.72657
6.72612
-6.94526
6.89086
-3.3114
-3.62565
13.1262
-12.9635
8.36086
-8.32992
-8.52211
8.86867
3.38195
0.922652
3.42891
-1.88233
3.76104
-1.87133
3.78033
2.66334
-5.97474
2.90761
-5.20668
3.95971
4.40115
-3.96016
-1.01084
-5.91885
5.94868
-5.82193
5.88058
8.99532
-9.08057
-1.8852
3.76011
-1.86866
3.76994
-3.42649
-2.3606
3.38037
0.922383
8.051
5.07517
-8.27016
-1.68214
-7.94041
7.7746
-8.17427
7.99011
-0.436455
5.81705
-5.38059
4.42857
-1.55443
7.37148
5.70583
5.92035
5.86377
-5.58671
1.10662
-6.48721
-6.39848
-2.51449
2.62568
2.44441
-2.31754
5.98174
1.64044
5.83092
-5.6233
-2.14997
-5.73497
3.8218
2.0112
3.87077
4.07674
2.40584
4.11675
3.03075
-3.03559
0.0048449
-3.05624
6.08698
0.72452
-5.41684
-4.49446
4.91707
2.94341
5.08564
-5.46085
-2.19796
-5.11321
-9.54142
-6.11665
-10.1078
10.1209
5.16267
9.81459
-12.0067
11.8537
4.75322
2.69572
4.81122
-4.87912
-2.47391
-4.79617
11.6488
-2.58707
-9.06172
-10.3481
-7.54723
10.3247
5.50251
10.9689
6.98223
11.0819
4.43681
7.21197
-9.93931
2.39209
-3.86779
-1.8466
-3.79104
3.68979
2.12735
3.80292
-4.21286
-2.51371
-4.19145
-4.28764
-2.65762
4.30413
2.42199
-4.40043
-3.77384
4.50586
2.385
4.1434
-10.1448
4.43506
-8.06071
-9.22118
-3.74236
-9.07218
3.58083
2.67406
-6.2549
-2.39391
8.61143
-4.21028
7.60059
-5.07095
-3.25897
-5.04578
-6.79327
-1.72885
-6.65163
-8.84399
8.36469
-9.176
8.52728
12.604
-5.69568
-6.90831
-3.96844
-2.47298
3.92036
-0.491454
-3.71076
3.71561
0.0502828
3.83061
4.75327
4.26181
-3.88789
-1.93404
-3.83257
3.83239
2.04818
3.8948
6.77506
2.22026
6.76763
-6.48795
-2.59262
-6.62019
9.04101
-8.65664
2.89635
-2.86002
5.3393
2.65081
-5.16072
-2.77969
6.19478
-3.17431
-3.02046
-12.2106
10.5757
1.63496
-4.83916
-0.41059
-0.167965
-5.49252
-3.78055
5.36825
0.552099
11.1278
7.34723
-5.51106
5.76103
6.16662
6.22415
-0.174327
5.77742
-5.14984
5.32687
-2.42977
-2.8971
5.33497
-5.49189
-1.28523
-5.3179
4.03268
0.339027
1.6807
-1.42843
-1.9674
-0.547082
-1.89947
1.46514
0.979275
1.59489
0.953571
1.67211
-2.9568
0.551172
2.40563
-2.00323
-1.76637
-3.7109
-1.09267
4.80357
5.67265
2.10196
-5.58158
-0.153389
2.64861
-2.60584
-0.749517
-2.96138
2.16867
-2.91819
-3.70208
-1.8878
5.58988
-3.37123
-0.461339
3.31779
0.552977
-3.8254
-2.09345
3.78589
0.330859
-3.12523
6.18846
-3.06323
-5.05927
2.52882
3.55816
4.54002
-4.78907
2.44626
2.3428
-1.23091
4.20241
0.883232
4.33313
-6.74324
4.54528
5.73358
3.13509
-6.05075
0.937532
-5.80571
8.4526
-7.27706
-1.17554
4.09137
4.36123
7.14328
5.46071
-5.7288
12.8721
-1.18857
-6.08849
6.99428
-3.85919
4.77013
-8.62932
-10.2308
4.14234
-9.21147
10.9842
-1.77278
-3.63712
-8.36954
12.8486
-1.21258
-11.636
8.60201
-4.14359
-4.24428
8.38787
-6.73066
6.71819
-1.93571
-4.78247
-10.1436
-5.7141
10.2309
1.62282
-9.84163
12.2337
-2.62965
4.07493
0.736287
4.08995
3.21818
-5.38692
2.16874
3.51248
-5.4482
2.04964
-7.43656
-6.7845
12.1384
-5.35393
-10.5269
-9.5738
-0.953065
2.51481
9.7189
-9.49704
7.41947
2.07757
3.30889
0.585919
-3.37767
-0.41337
0.251775
4.53199
-4.78376
4.05469
4.20817
3.34433
1.18766
3.84086
2.10781
-3.86701
-0.324443
-4.15343
1.4958
-1.73143
-3.67732
5.17313
-4.06724
0.389916
-2.73856
-3.51003
6.24859
-4.58516
3.03778
3.15068
5.08596
-4.91425
1.40422
-2.40126
-2.51299
2.66302
-4.39445
1.97395
3.19917
4.35895
0.585112
5.94925
6.18918
-8.62331
0.562595
11.2643
-9.58221
2.49827
8.58362
-9.91774
0.343948
-8.72823
1.08607
-5.29635
-5.16882
5.09486
-6.82371
-3.53446
6.14728
0.62035
-6.23183
-0.4198
-6.02376
-2.82023
-6.46388
-3.04902
-6.12699
-8.77781
-1.63843
-7.13939
6.72627
-6.67523
-3.43256
7.41418
1.1131
-7.38904
7.31393
-7.46772
7.16849
0.0949879
3.62062
4.3568
1.88381
-2.38971
4.27353
-5.07154
7.2918
-8.54186
3.47031
4.00681
-6.59943
-4.53505
5.03002
4.01099
5.31587
8.91051
-10.4178
1.50725
-10.7308
12.0369
-1.30613
-16.4882
5.75744
-7.5777
2.59862
0.297725
2.62958
0.61355
2.48646
-3.10001
-2.24647
-2.19953
-2.36162
-3.4466
5.80822
1.15108
-3.46291
2.31182
-3.52374
4.67482
-0.0949248
-3.36798
5.30973
-2.82327
5.60745
-3.61866
1.98879
3.37151
5.7296
-2.35809
4.37463
-1.72382
1.85166
-4.20975
-1.59494
-2.96862
5.09597
-3.27997
3.66989
-0.312207
3.98209
-4.08078
0.906464
-0.736446
3.47172
3.72657
4.28115
-3.0935
2.94906
-4.67288
-1.26069
-4.08777
-0.888598
-0.294417
-3.75007
4.04449
6.0325
-6.32692
-5.23104
9.54511
-4.31407
7.72538
-5.38972
-2.33567
-4.24748
-4.40916
3.86261
1.91482
9.6402
0.235832
-5.62555
-4.914
-4.02058
3.19948
2.12739
-1.89904
3.534
2.06701
-0.386307
0.539889
1.055
1.86307
-1.32318
0.22965
1.63342
-1.19878
1.93952
0.709091
-1.9804
0.0809263
-1.34431
3.51298
1.06132
-2.0406
0.717414
1.05391
-3.48369
4.91225
-2.53018
-2.38207
5.96617
1.14348
-3.67365
4.17442
-3.8354
2.33904
-3.43171
-1.33462
-5.17001
-3.52957
-2.58257
4.89439
-3.22565
5.32761
1.19232
-5.17422
6.36653
-3.58471
1.69691
-3.0978
3.80689
-1.09011
-2.00768
2.84621
2.74367
-2.96243
0.00104869
-0.116226
2.35139
-2.46762
-0.566799
-2.57003
-4.57298
4.90384
-2.10639
4.55265
2.16714
-1.9152
6.46785
1.81063
-3.72583
-3.24864
-3.70998
-1.38302
3.157
-0.574013
-4.22216
-5.35648
4.1227
0.21043
-6.86315
7.66138
-0.798232
-3.91974
-0.625542
4.71691
-5.92077
0.472571
-3.87113
3.79025
4.67348
4.88391
-11.4202
-0.215835
-6.2575
1.14526
-7.40276
5.50649
-3.59725
7.73959
-10.3879
6.95536
-9.27483
6.56405
-0.838712
6.26076
-4.09201
2.80096
-8.51505
-6.89223
5.39243
-2.69671
6.12871
-3.06151
9.19022
-5.69116
5.1572
4.03302
-0.974004
-4.07177
-5.17564
4.20164
-0.0184453
4.07151
4.97252
-2.86471
4.64808
2.26008
-4.66134
-2.13437
-6.50098
1.83964
-3.3503
-1.91648
3.75611
3.16949
3.75541
1.24312
-3.34204
7.24088
-8.19395
-1.88695
-3.28187
5.17215
-0.970511
3.38317
-6.66504
-1.91318
4.86917
-0.845565
-4.02361
0.826507
-4.36096
1.65304
-6.014
5.17066
-5.59047
2.19034
-9.76804
-5.1987
-5.13071
-2.23141
-5.23631
-7.60031
5.36889
-1.84287
5.47106
-8.55958
7.71401
-3.47732
8.84621
-5.42957
-1.03431
5.82648
1.34201
10.1882
0.170281
-4.70533
-1.89356
3.95025
-2.05669
1.30592
-3.57979
0.370461
2.48633
3.47984
-6.519
-0.0804285
-4.78576
-3.92573
7.93672
5.61939
11.6519
1.23413
9.11798
-1.18126
10.3521
4.13461
4.36997
-3.01539
4.52263
1.0291
4.49942
-0.843934
2.83273
1.78564
1.7808
0.825044
2.32744
1.39913
3.23391
0.133894
-2.06563
4.63344
-8.65403
-0.992104
-8.06878
1.12815
5.82558
-4.69743
3.08939
-0.962004
1.0327
0.0973084
-1.61553
1.51822
-2.79979
-2.00184
-0.368416
-1.6416
2.35901
1.87138
-1.9906
-0.809194
0.34988
-3.87945
3.08183
-3.08078
-0.337113
6.02942
-2.76798
0.300361
-1.07106
-2.26967
-2.81675
2.73582
6.17581
0.292042
3.11257
5.19588
3.10243
0.237723
3.87419
-5.64697
-3.56237
-5.8628
-0.356311
4.3606
1.7491
7.9698
5.78212
4.81161
-1.85343
-10.0474
6.52582
-2.00319
5.21969
-1.19608
-4.81792
4.98706
2.30475
-5.60741
0.0169421
-4.80098
-6.80416
-0.556006
8.27002
-9.63221
8.5979
5.77768
1.36171
-4.40535
-0.725366
4.22868
0.14129
10.4934
-1.18097
-6.74002
7.92099
-4.64461
3.6525
0.781983
2.75202
2.3002
1.3382
-5.40182
-10.0992
-1.93974
-1.54395
-4.32181
0.481763
-2.35314
6.27409
-2.62159
3.93843
5.2994
6.3321
-2.14979
-4.17713
6.46386
-2.52543
3.80667
)
;

boundaryField
{
    wall-4
    {
        type            calculated;
        value           uniform 0;
    }
    velocity-inlet-5
    {
        type            calculated;
        value           uniform -3.75095;
    }
    velocity-inlet-6
    {
        type            calculated;
        value           uniform -5.62643;
    }
    pressure-outlet-7
    {
        type            calculated;
        value           nonuniform List<scalar> 8(2.99259 7.3125 3.86465 9.73354 8.00065 5.09833 6.36841 9.14268);
    }
    wall-8
    {
        type            calculated;
        value           uniform 0;
    }
    frontAndBackPlanes
    {
        type            empty;
        value           nonuniform 0();
    }
}


// ************************************************************************* //
