/*--------------------------------*- C++ -*----------------------------------*\
| =========                 |                                                 |
| \\      /  F ield         | OpenFOAM: The Open Source CFD Toolbox           |
|  \\    /   O peration     | Version:  4.0                                   |
|   \\  /    A nd           | Web:      www.OpenFOAM.org                      |
|    \\/     M anipulation  |                                                 |
\*---------------------------------------------------------------------------*/
FoamFile
{
    version     2.0;
    format      ascii;
    class       volVectorField;
    location    "38";
    object      U;
}
// * * * * * * * * * * * * * * * * * * * * * * * * * * * * * * * * * * * * * //

dimensions      [0 1 -1 0 0 0 0];

internalField   nonuniform List<vector> 
918
(
(0.985092 -0.000548279 0)
(0.0047914 2.96626 0)
(-0.00449757 0.788228 0)
(0.979828 0.0024082 0)
(-0.0530517 1.94861 8.00601e-21)
(-0.00704837 2.94891 -1.13537e-18)
(0.826788 1.18251 1.63574e-19)
(0.291206 0.142307 -6.8262e-21)
(0.999905 -0.000301784 0)
(0.0472632 0.852934 0)
(0.0192088 0.666847 0)
(0.731323 -0.012132 0)
(0.011482 2.93021 0)
(0.00268181 2.79503 0)
(-0.0200124 3.15402 3.23727e-19)
(0.000134865 1.85094 -1.40022e-20)
(0.363813 0.0435239 4.48006e-19)
(0.190574 1.2024 1.08647e-19)
(0.96198 0.00388398 0)
(0.0123234 0.625621 0)
(0.0687672 0.178024 -3.24176e-19)
(1.00217 -0.00520222 0)
(1.00076 -0.0101544 0)
(0.975972 -0.00653403 0)
(0.579813 -0.0250338 0)
(0.0183302 2.63774 0)
(-0.0149594 2.9102 4.01895e-19)
(-0.0027714 0.855083 0)
(0.00630097 1.03537 0)
(-0.00319062 0.830517 0)
(-0.0479154 2.59267 0)
(-0.0226709 2.05258 -6.22824e-21)
(-0.0244195 1.78452 0)
(-0.0204606 2.98751 -4.09913e-23)
(-0.0169846 3.0054 9.01906e-19)
(0.00201212 3.00015 0)
(0.870576 -0.00870081 0)
(0.436647 0.971842 8.92325e-20)
(0.800103 1.19976 -1.61295e-19)
(0.946217 1.03579 1.89639e-19)
(0.671022 1.29709 -3.73471e-20)
(0.67258 1.28371 2.20118e-19)
(0.33473 0.22379 6.65578e-21)
(0.304495 0.11503 0)
(1.12763 0.57164 0)
(0.303177 0.214247 3.04106e-20)
(0.258951 0.145894 -3.1576e-20)
(0.919541 -0.00727146 0)
(1.00028 0.000153596 0)
(0.999916 0.000340143 0)
(1.00351 -0.00767739 0)
(1.00096 -0.00094622 0)
(1.00019 2.28843e-05 0)
(0.0660955 1.79528 -3.58433e-19)
(0.0252992 1.03229 0)
(0.0705263 0.913956 0)
(0.00928325 0.982107 0)
(0.0300652 0.799147 0)
(0.0222132 1.99242 0)
(0.0262775 0.849746 0)
(0.0198264 0.696643 0)
(0.0066507 0.82891 0)
(-0.000919385 0.64208 0)
(0.83755 -0.0143117 0)
(0.848754 0.0278086 0)
(0.76616 -0.00235868 0)
(0.821399 0.0371029 0)
(0.698596 -0.0141684 0)
(0.015326 3.00067 4.13129e-19)
(0.0116984 3.00834 0)
(0.00651651 3.00254 0)
(0.014124 2.99719 4.64947e-24)
(0.00836741 2.95854 -6.24433e-19)
(0.0151993 2.98193 0)
(0.0112212 2.90366 0)
(0.0252562 2.93062 9.27537e-25)
(0.00504555 2.82498 0)
(0.0311148 2.91607 0)
(-0.00475556 2.74465 0)
(0.303869 3.54679 0)
(-0.145856 3.62376 0)
(0.135375 3.24631 -2.98815e-19)
(-0.0103096 2.98551 0)
(-0.00810737 2.13775 0)
(-0.00937373 2.11345 1.38075e-20)
(0.000894294 1.8661 -1.79374e-20)
(0.463165 0.140565 -1.55014e-19)
(0.355658 0.0283877 -1.49429e-19)
(0.447772 0.162535 -4.6658e-19)
(0.347627 0.064353 -3.08227e-19)
(0.188306 0.943077 0)
(0.23547 1.34064 -1.33991e-19)
(0.369716 1.29376 2.27898e-19)
(0.987352 0.00823236 0)
(0.941303 0.00547065 0)
(1.00031 0.000430321 0)
(1.00326 0.0094954 0)
(1.00287 0.00785096 -1.20077e-18)
(0.991774 0.00988925 9.16892e-19)
(-0.00590487 0.802542 0)
(0.00549332 0.639444 0)
(0.00603157 0.881234 0)
(-0.0115691 0.791758 0)
(-0.013383 0.625136 0)
(0.115681 0.185517 1.00504e-19)
(0.169597 0.165592 0)
(0.993357 -0.00825507 0)
(0.954469 -0.00615485 0)
(0.771784 0.044441 0)
(0.708535 0.0570187 0)
(0.659832 -0.0235855 0)
(0.959083 -0.00678233 0)
(0.619066 0.0787234 0)
(0.443722 -0.000766656 6.55418e-19)
(-0.0369109 2.86365 3.0432e-19)
(0.0422658 2.90874 0)
(0.0546851 2.88497 0)
(-0.0045612 2.69853 0)
(-0.013656 2.98515 3.80586e-19)
(-0.0180701 2.89514 0)
(-0.0158332 2.988 -1.18175e-18)
(-0.0132151 2.92535 4.05641e-19)
(0.0744523 1.29201 0)
(0.0684324 1.36055 0)
(-0.0213497 2.07444 -3.08965e-22)
(-0.0150321 2.03993 0)
(-0.00570334 1.82118 0)
(0.937939 -0.00776916 0)
(0.856753 -0.00806673 0)
(0.862729 0.0059071 0)
(0.949072 -0.00789345 0)
(0.88359 -0.00737687 0)
(0.545582 1.16646 -1.13272e-19)
(0.595341 1.2059 0)
(0.4042 0.924224 1.60871e-20)
(0.343833 0.778669 0)
(0.909559 1.07256 -5.00254e-20)
(1.01658 0.876968 1.00271e-19)
(0.363741 1.38303 0)
(0.527223 1.36046 0)
(0.531388 1.31248 0)
(0.121016 0.208381 -1.32653e-19)
(0.37149 0.214862 0)
(0.334822 0.102615 8.70262e-20)
(0.992594 0.931319 0)
(1.06132 0.784335 0)
(1.08344 0.725395 -7.30993e-20)
(1.10716 0.627073 0)
(1.14917 0.409168 2.33682e-20)
(0.957591 -0.00850591 0)
(0.962319 -0.0102678 0)
(0.901919 -0.00739651 0)
(0.984336 -0.00919694 0)
(0.974812 -0.00936082 0)
(0.937416 -0.00598319 0)
(1.00017 0.00214935 0)
(1.00087 0.00142399 0)
(0.999869 0.000909828 0)
(0.0263999 2.05968 1.95952e-19)
(0.0991633 1.74684 0)
(0.0111372 2.16986 3.11844e-19)
(0.046984 1.85084 -2.65296e-19)
(0.10082 1.21529 -8.84281e-20)
(0.0428158 1.09853 0)
(0.11699 1.05804 0)
(0.00743302 0.931967 0)
(0.0148214 0.760658 0)
(-0.00572146 2.21877 -6.64023e-22)
(0.0267596 1.98528 0)
(-0.00584001 2.21028 -3.29423e-20)
(0.0271357 1.98535 6.02876e-20)
(0.00647902 0.902689 0)
(0.0156342 0.876741 0)
(0.0200389 0.723927 0)
(0.00337973 0.824535 0)
(-0.00340854 0.637198 0)
(0.934921 0.00898682 0)
(0.842668 -0.0152249 0)
(0.925382 -0.00127455 0)
(0.839062 -0.0118206 0)
(0.811254 0.00119649 0)
(0.901588 0.0194713 0)
(0.878556 0.0235016 0)
(0.788031 -0.000206492 0)
(0.00419775 3.06434 -3.66703e-21)
(0.0169858 3.05769 0)
(0.0153852 2.96901 0)
(0.00893788 2.87616 0)
(0.962211 3.98318 0)
(1.30687 3.24611 4.46875e-19)
(0.0691562 3.07671 0)
(-0.0243289 2.90761 0)
(0.0957518 1.46463 0)
(0.0284339 1.83638 0)
(0.0552407 1.69679 0)
(-0.0349313 2.54251 3.55416e-21)
(-0.0219392 2.3102 0)
(-0.0500584 2.4401 0)
(0.0298296 1.93363 1.45545e-21)
(-0.0159595 2.16662 2.1292e-20)
(-0.0100306 2.14725 1.82094e-20)
(0.017575 1.89482 0)
(0.488465 0.118452 2.32272e-19)
(0.373106 0.010546 -2.28219e-19)
(0.271899 1.56993 0)
(0.246173 0.731044 -1.30969e-19)
(0.177437 1.66155 -4.34517e-19)
(0.203235 1.19884 4.35515e-19)
(0.901691 0.00589886 0)
(0.967352 0.0107214 0)
(0.974413 0.0106804 0)
(0.923192 0.00594329 0)
(-0.00876094 0.819709 0)
(0.00287453 0.810091 0)
(-0.00410346 0.64255 0)
(0.262482 0.209755 2.80508e-19)
(0.219514 0.194463 -3.32248e-19)
(0.223339 0.159257 0)
(1.07989 0.0813849 1.34514e-20)
(1.05868 0.035548 0)
(0.999718 0.0378375 0)
(0.896561 -0.00709412 0)
(0.514879 0.0921354 0)
(0.548796 0.0763611 -1.04948e-18)
(0.40158 0.00494265 3.93505e-19)
(0.00908831 2.98168 3.21447e-19)
(-0.0324921 2.8674 1.9614e-20)
(0.00181981 3.04958 -7.74109e-21)
(0.0208603 3.04322 2.85566e-19)
(-0.0153902 2.99631 1.32973e-20)
(-0.0127592 2.94951 -5.36004e-23)
(-0.0175311 3.0115 -2.43964e-19)
(0.0141873 3.02308 1.75513e-19)
(0.00667559 3.03662 -2.85088e-19)
(0.932375 -0.00231092 0)
(0.938597 -0.00336207 0)
(0.843503 -0.00762243 0)
(0.956427 0.0115064 0)
(0.94278 0.0128272 0)
(0.881191 0.00551573 0)
(0.917963 0.015789 0)
(0.926359 0.0146655 0)
(0.838337 0.00333355 0)
(0.759919 1.43303 1.31561e-20)
(0.802952 1.52491 0)
(0.220612 0.353236 3.29816e-20)
(0.245448 0.713694 2.63632e-19)
(0.290541 0.768498 -1.57397e-19)
(0.304327 0.559544 3.06215e-19)
(0.335703 0.812563 6.89427e-19)
(0.134158 0.23829 1.56195e-19)
(0.419286 0.186008 3.26623e-19)
(0.397192 0.204335 8.49126e-20)
(0.348008 0.081556 1.62672e-19)
(1.1417 0.465843 -2.90259e-21)
(1.15133 0.263149 -5.58663e-21)
(0.00681916 2.22027 1.23132e-19)
(0.043437 1.91584 0)
(0.962573 0.0295951 0)
(0.937239 0.0120641 0)
(0.86311 -0.0182186 0)
(0.0110053 3.07416 0)
(0.0204004 2.94389 5.21958e-19)
(0.0171906 2.95615 0)
(0.00674928 2.85065 -5.202e-19)
(0.00574738 3.09103 1.23631e-19)
(0.006026 3.0823 0)
(0.888138 1.82849 -6.55936e-20)
(1.27187 2.37933 1.08191e-19)
(0.868294 1.93252 -4.67708e-19)
(0.0203228 2.98158 -2.81882e-19)
(0.036355 3.00266 0)
(-0.0326662 2.88018 0)
(-0.00985052 2.19051 -5.60514e-21)
(-0.015141 2.17925 -4.44751e-20)
(0.0274282 1.97222 -3.33965e-22)
(0.277066 1.38581 4.28271e-19)
(0.19929 0.526473 -2.91536e-19)
(0.0527929 1.98809 3.30213e-19)
(0.15352 1.8811 -3.95022e-19)
(0.149295 1.47554 4.06647e-20)
(0.0021485 3.11806 -7.71016e-19)
(0.0169445 3.11751 8.67121e-19)
(-0.00969457 2.98079 3.51502e-19)
(-0.00357326 2.97774 -3.34658e-19)
(-0.0215293 2.88205 -3.58187e-19)
(0.00762792 3.09862 -9.21995e-19)
(0.00116127 3.10648 9.25195e-19)
(0.291803 0.726568 0)
(0.257614 0.724814 -5.44765e-19)
(0.112887 0.246677 2.42534e-19)
(0.35172 0.933282 4.65201e-19)
(0.182963 0.277367 -7.1795e-19)
(1.15514 0.172109 3.77101e-20)
(1.15496 0.312584 0)
(1.13934 0.12328 -1.56201e-20)
(-0.00296162 2.23193 -9.42632e-22)
(-0.000897717 2.22884 0)
(0.0295413 1.95871 0)
(0.351049 1.29013 -1.53601e-19)
(0.374935 1.12839 -3.33324e-19)
(0.187604 0.367673 5.93504e-19)
(1.00553 -0.0111838 0)
(1.00751 -0.00744279 2.23101e-19)
(0.0454635 1.27207 0)
(0.01328 1.18723 0)
(1.00198 0.00344999 7.98366e-22)
(1.0038 0.0100416 4.5121e-19)
(-0.0385779 2.54527 -4.64139e-21)
(-0.0344645 2.5769 0)
(0.0347381 3.17656 2.03345e-19)
(0.38712 3.48168 0)
(1.15692 0.644889 -3.61877e-20)
(1.01322 0.0135786 -7.64568e-22)
(1.0212 -0.0107422 0)
(1.00175 0.000104167 2.63024e-23)
(0.098727 1.3483 0)
(0.15609 2.57517 0)
(0.0218667 1.2879 0)
(0.0026232 2.63037 3.58791e-20)
(-0.0200243 2.58607 2.39195e-20)
(1.0025 0.0287885 1.00601e-21)
(1.0616 0.00305242 0)
(1.09279 0.0217083 0)
(0.0181677 1.85959 0)
(-0.0277333 2.58311 0)
(0.034955 1.27274 0)
(0.308856 1.46233 -5.11162e-20)
(1.01124 -0.00989936 0)
(1.00939 -0.01537 0)
(1.0024 0.000624575 2.83346e-19)
(1.00538 -0.00479336 -3.36387e-19)
(1.0012 -0.00105399 0)
(0.0401319 1.56158 0)
(0.0597363 1.3808 0)
(0.0626762 1.49497 0)
(0.0487822 1.25823 0)
(0.0215924 1.17951 0)
(0.0123493 1.15064 0)
(1.03417 -0.0070693 0)
(1.02097 0.0161593 -3.62595e-22)
(0.804643 1.25476 8.03234e-20)
(1.00223 0.000371541 -2.8272e-19)
(1.00402 0.00534007 3.36025e-19)
(1.00118 0.00211998 0)
(1.01347 0.0105388 2.80556e-19)
(1.00856 0.00868005 -3.39565e-19)
(1.00927 0.0156649 0)
(-0.0315893 2.60614 0)
(-0.0327733 2.58875 9.72388e-21)
(-0.0324182 2.59908 -6.50145e-21)
(1.22653 0.242903 2.86758e-19)
(1.15426 0.0776879 0)
(0.0451682 3.07436 -4.30864e-19)
(0.065602 2.85227 -3.06484e-20)
(0.14326 3.19649 6.53887e-19)
(0.140622 3.22697 -9.13606e-20)
(0.134175 3.23576 0)
(0.0202674 3.13669 1.14948e-19)
(0.0764102 3.16155 4.20428e-19)
(0.0695021 3.18593 -2.18546e-19)
(0.0235068 3.12929 0)
(0.659354 0.294247 0)
(0.572352 0.344216 0)
(1.10244 0.671365 9.17413e-20)
(1.1309 0.804285 -9.75496e-20)
(1.17159 0.554297 0)
(1.21937 0.499949 0)
(1.01635 0.0136747 -5.2993e-19)
(1.01513 0.0148473 6.64283e-19)
(1.02512 -0.0101855 0)
(1.02313 -0.0124489 0)
(1.0064 0.0025725 0)
(1.01014 0.00360457 0)
(1.00462 0.00186776 0)
(1.00983 0.00603801 0)
(1.00803 0.00628749 0)
(1.00444 0.00442436 0)
(0.0869354 1.34362 0)
(0.0831227 1.31663 0)
(0.118438 1.38018 0)
(0.137723 1.39465 0)
(0.148599 2.59841 0)
(0.189287 2.66117 -1.99937e-19)
(0.100401 2.65726 0)
(0.0917485 2.65838 1.00892e-19)
(0.0427304 2.6888 -9.05699e-20)
(0.0274709 1.31114 0)
(0.0254835 1.23715 0)
(0.036716 1.31323 0)
(0.0278781 1.25507 0)
(-0.00146261 1.98507 -2.05797e-20)
(-0.0230189 2.61457 1.77893e-20)
(-0.011632 2.6728 3.32476e-20)
(-0.0178504 2.6891 0)
(-0.0273603 2.61916 -5.43522e-20)
(-0.0269711 2.61244 -3.10882e-20)
(0.0101678 1.98579 1.69529e-20)
(-0.0136521 2.41067 -2.30237e-20)
(-0.0169659 2.42974 -3.95164e-20)
(1.01187 0.0363789 5.32644e-19)
(1.00782 0.0173846 -6.6263e-19)
(1.00349 0.0424156 -5.36354e-19)
(0.983589 0.023227 6.80801e-19)
(1.06271 0.00725338 0)
(1.04814 -0.00907245 0)
(1.09158 0.0304971 0)
(1.07227 0.0111929 0)
(1.07016 -0.000489252 0)
(1.13271 0.0799616 0)
(1.10699 0.0408615 0)
(1.11167 0.0273519 0)
(-0.0410069 2.44991 -2.68118e-21)
(0.00500959 2.06364 0)
(-0.0235497 2.26016 0)
(-0.0294314 2.60401 7.69309e-21)
(-0.0249855 2.61517 -3.97484e-22)
(0.0149569 1.61931 1.96113e-20)
(0.0310342 1.58632 -1.97447e-20)
(0.040384 1.40309 0)
(0.0498379 1.41699 0)
(0.03278 1.42558 0)
(0.0199437 1.29035 0)
(0.0105 1.1944 0)
(0.378941 1.48007 7.78769e-20)
(0.427298 1.48303 4.74082e-20)
(0.593252 2.43815 -1.04715e-19)
(0.404803 2.5372 3.07439e-19)
(0.34803 2.06802 3.65684e-20)
(1.02108 -0.00820317 0)
(1.01544 -0.00991016 0)
(1.01495 -0.0160826 0)
(1.00736 -0.00127849 0)
(1.00493 -0.00106598 0)
(1.00771 -0.00466399 0)
(1.00918 -0.00377628 0)
(1.01407 -0.00452046 0)
(1.02166 0.0162187 5.21039e-19)
(1.01827 0.0162151 -6.61449e-19)
(1.022 0.0181078 -5.2145e-19)
(1.01981 0.0169372 6.54829e-19)
(0.770536 1.30541 0)
(0.709801 1.35715 7.48384e-20)
(0.872635 1.21447 1.90763e-20)
(0.932267 1.15407 -2.53663e-20)
(1.15621 2.60336 1.56256e-19)
(0.812823 0.109436 2.57959e-19)
(1.15009 0.105372 0)
(1.20239 0.185478 -2.29766e-19)
(1.19455 0.139678 -9.72459e-21)
(1.00215 0.142828 0)
(0.158681 2.96049 2.31975e-19)
(0.114606 2.86751 -5.7626e-19)
(0.0289508 2.37995 3.58514e-19)
(0.0954529 0.00210445 -1.53072e-19)
(0.335866 3.42378 -7.67222e-20)
(0.197345 3.32034 0)
(0.227944 3.35612 9.98466e-20)
(0.255916 3.04096 -7.48096e-19)
(0.360032 3.2017 0)
(0.00534549 3.12076 2.17516e-20)
(0.0155808 3.12932 -2.59391e-19)
(0.0139117 3.12518 3.80416e-19)
(0.0350316 3.14028 0)
(0.0334914 3.15011 0)
(1.1911 2.64333 0)
(0.542489 0.841854 -2.25857e-19)
(1.05813 0.975544 1.68716e-20)
(0.962407 1.0696 0)
(0.812392 0.950635 -5.64815e-20)
(1.04543 0.881161 1.07655e-20)
(0.351271 0.401438 -4.074e-19)
(0.695744 0.323309 -8.48535e-21)
(0.665413 0.238118 1.84598e-19)
(0.585486 0.389294 1.36196e-20)
(0.503178 0.341946 -5.49779e-19)
(0.666493 0.344652 0)
(0.710516 0.423097 3.11185e-19)
(0.717318 0.415549 0)
(0.62053 0.380581 0)
(0.600011 0.289415 0)
(0.796394 0.609466 1.88317e-19)
(1.21088 0.271882 -2.47257e-19)
(1.21413 0.40543 0)
(1.23874 0.342792 0)
(0.74691 0.191462 2.7502e-19)
(0.846965 0.539893 -1.71736e-19)
(0.747154 0.511521 3.0503e-19)
(0.951277 0.419677 -3.36667e-19)
(1.02007 0.0147567 3.54569e-19)
(1.01816 0.0144163 -3.56895e-19)
(1.01592 0.0162972 0)
(1.03572 -0.0063974 0)
(1.02952 -0.00878183 -3.34923e-19)
(1.02733 -0.0127663 3.32292e-19)
(1.0251 0.00969926 0)
(1.02382 0.0131963 0)
(1.01121 0.00397396 0)
(1.01432 0.00889269 0)
(1.01472 0.00405724 0)
(1.01385 0.00296729 0)
(0.0546465 1.32383 0)
(0.06193 1.28579 0)
(0.142408 1.34721 -2.42808e-20)
(0.275844 1.45956 2.51824e-20)
(0.162624 1.42945 5.27847e-20)
(0.201147 1.4398 -8.6378e-20)
(0.165104 1.37322 0)
(0.130789 1.59229 -4.81155e-20)
(0.111017 1.55824 0)
(0.351638 2.01555 -5.28489e-20)
(0.35129 2.36223 2.71974e-19)
(0.192151 1.44348 4.20718e-20)
(0.252615 1.37005 -2.20785e-21)
(0.201457 1.35689 1.77588e-21)
(0.262748 1.31714 -6.86302e-20)
(0.232247 1.57661 0)
(0.260471 1.607 6.72033e-20)
(0.032207 2.27134 -2.25902e-20)
(0.0427672 2.67767 0)
(0.0634305 2.41038 8.19967e-20)
(0.0574537 2.43413 0)
(0.0717335 2.67063 -1.12229e-19)
(0.0534533 2.70544 0)
(0.0290301 1.39878 -1.50746e-20)
(0.0340521 1.44897 0)
(0.0331234 1.3661 0)
(0.0254048 1.36928 1.69708e-20)
(-0.00130737 2.65977 -9.78117e-21)
(0.0289185 2.7051 1.04531e-19)
(0.0117279 2.72797 7.78673e-22)
(-0.000389885 1.83437 1.84008e-20)
(-0.00848616 1.6766 8.47427e-21)
(0.0293217 1.28712 0)
(0.00416601 1.21514 0)
(0.0516239 1.56234 2.10566e-20)
(0.0285681 1.43282 2.05991e-20)
(0.0388551 1.49971 -2.53421e-20)
(0.0405072 1.58722 0)
(-0.0367486 2.2876 6.92578e-22)
(-0.0427705 2.55701 -8.8668e-22)
(-0.0202261 2.45482 -4.79282e-21)
(-0.0137101 1.84971 -2.22206e-20)
(-0.0330478 2.50435 -8.13638e-21)
(-0.0253431 2.45089 3.62416e-20)
(1.02009 0.02097 -3.52318e-19)
(1.01637 0.0264821 3.54056e-19)
(1.01526 0.0168351 0)
(1.01156 0.0679265 4.93076e-19)
(0.991849 0.0574266 -5.5204e-19)
(0.952658 0.0401661 6.18369e-19)
(1.0149 0.101598 -6.58989e-20)
(1.04178 -0.00617895 0)
(1.04999 -0.00192816 3.21675e-19)
(1.03836 -0.0104341 -3.20904e-19)
(1.06966 0.0406544 -1.90381e-20)
(1.06323 0.0211908 1.63892e-19)
(1.06454 0.0513727 0)
(1.0511 0.0472357 -5.87411e-20)
(1.03379 0.0400616 0)
(1.02623 0.0364416 0)
(1.02754 0.0132259 0)
(1.02422 0.0158569 0)
(1.03958 0.0310105 1.20698e-19)
(1.03946 0.025361 -2.6595e-19)
(1.04935 0.0308988 -1.28658e-19)
(1.04863 0.0310164 -1.4134e-19)
(1.06746 0.0610853 2.77185e-19)
(1.09177 0.0491434 0)
(1.10228 0.0909326 0)
(-0.0399555 2.28011 -1.26668e-20)
(-0.0111605 2.05191 -3.56452e-21)
(-0.0191281 2.02997 0)
(-0.0287882 2.4595 1.31755e-20)
(-0.0229755 2.40718 6.02097e-21)
(-0.0505189 2.47134 -2.85447e-21)
(-0.0269556 2.62617 2.74024e-20)
(-0.0346951 2.56709 -1.95703e-21)
(-0.0291249 2.52033 8.01098e-21)
(-0.0223799 2.62066 -1.14119e-20)
(-0.0282344 2.62124 1.4474e-20)
(0.0197572 1.51452 2.06589e-22)
(0.0189178 1.64772 2.00615e-20)
(0.36235 1.4208 -2.86589e-20)
(0.359743 1.36884 3.91317e-20)
(0.652441 1.40839 -7.23193e-20)
(0.521794 1.47376 -4.59301e-20)
(0.583173 1.44296 0)
(0.58169 2.41574 9.96037e-20)
(0.653272 2.41267 1.50453e-19)
(0.404675 2.51364 3.68319e-20)
(0.407523 2.54781 -2.79105e-19)
(0.520973 2.49656 2.68575e-19)
(0.542745 2.45426 0)
(0.479705 2.51029 -2.47733e-19)
(0.238334 2.5872 5.25189e-19)
(0.347937 2.56674 -3.41987e-20)
(0.282197 2.65044 -7.10989e-19)
(0.931429 2.37496 3.40836e-19)
(0.825792 2.38169 0)
(1.0109 0.000208637 1.14281e-20)
(1.0152 -0.00552146 -9.46878e-21)
(1.01756 -0.00353583 -1.7064e-19)
(1.01483 -0.000952907 1.72479e-19)
(1.01217 0.000976006 0)
(0.636567 1.27341 0)
(0.644289 1.169 0)
(0.743866 1.07264 0)
(0.643384 1.12784 0)
(1.18436 2.61381 2.70224e-20)
(1.0718 2.36071 0)
(0.85066 2.18119 1.84026e-21)
(0.821395 2.44614 0)
(0.921335 2.5376 -1.9307e-19)
(0.958603 2.49733 1.25436e-19)
(0.815215 0.155657 0)
(0.786829 0.129861 7.00303e-20)
(0.92692 0.140941 4.11443e-19)
(0.837115 0.131754 -1.53481e-19)
(0.820765 0.0811242 -4.72654e-19)
(1.07111 0.222414 -4.19464e-19)
(0.998749 0.288187 -6.16082e-21)
(0.921595 0.272581 3.83402e-19)
(1.00459 0.213094 3.22324e-19)
(0.954534 0.180165 -5.47825e-19)
(0.922028 0.183472 6.82562e-20)
(0.950334 0.23544 -1.47281e-19)
(0.933159 0.204064 0)
(0.993171 0.177316 2.70454e-19)
(1.04475 0.177145 0)
(1.0434 0.206335 0)
(1.09846 0.11363 1.30839e-19)
(1.07466 0.166462 -5.90289e-21)
(1.0685 0.223228 -7.02546e-20)
(1.10125 0.194291 0)
(1.02243 0.0436368 2.7341e-19)
(1.04297 0.0562962 3.38978e-19)
(1.035 0.0419025 -2.68487e-19)
(1.04225 0.0629926 -2.27754e-19)
(1.01812 0.0703496 -3.4783e-19)
(0.989519 0.147497 0)
(1.00048 0.0996141 0)
(0.970801 0.0660543 -2.19584e-19)
(0.921423 0.0863636 8.5612e-20)
(1.03773 0.097528 3.15424e-19)
(1.06807 0.113471 -3.75055e-19)
(1.07299 0.143668 3.31416e-19)
(1.02829 0.139683 0)
(1.07133 0.104667 0)
(1.05612 0.0834722 -1.52401e-19)
(1.04468 0.092248 -2.5811e-19)
(0.575325 1.07907 6.88101e-20)
(0.621147 1.39261 -3.28e-20)
(1.15967 2.7408 -1.09152e-19)
(1.23709 3.07568 1.69605e-21)
(1.24872 2.71198 -8.90038e-20)
(1.27935 2.71015 -2.11646e-20)
(1.16571 2.35273 8.17128e-21)
(1.22536 2.96984 -6.75872e-20)
(1.24659 2.93899 1.40072e-19)
(1.24289 3.23091 -7.45376e-20)
(1.36568 2.96781 8.58738e-20)
(1.30332 2.89176 0)
(0.548223 0.846513 -2.16739e-20)
(0.116282 1.24877 2.58987e-19)
(0.551788 0.456605 2.66119e-19)
(0.360756 0.198671 2.88836e-19)
(0.523987 0.390446 3.11493e-19)
(0.555771 0.468971 -5.12186e-19)
(0.547264 0.48865 4.19174e-19)
(0.492529 0.406254 -1.58577e-19)
(0.410889 0.3326 3.57314e-19)
(0.747525 0.250291 -1.57164e-19)
(0.712982 0.281347 0)
(0.698441 0.207651 3.67722e-21)
(0.732792 0.515198 1.63594e-19)
(0.707937 0.479449 -5.98205e-19)
(0.610919 0.47721 5.42664e-21)
(0.626931 0.461609 0)
(0.665658 0.734135 1.77176e-19)
(0.833636 0.778572 1.77556e-19)
(0.748406 0.860015 -2.06614e-19)
(0.868035 0.804318 -7.23662e-20)
(0.893114 0.836316 -1.96183e-20)
(0.899574 0.838564 2.01547e-20)
(0.843982 0.636494 -3.13949e-19)
(0.914409 0.707719 6.74464e-20)
(0.967127 0.713634 0)
(0.949807 0.68208 -9.6232e-20)
(1.02443 0.310392 9.79698e-20)
(1.11976 0.282412 1.43325e-19)
(1.05846 0.256743 1.68161e-19)
(1.017 0.354615 -1.97225e-19)
(1.05355 0.417962 0)
(1.09421 0.399801 0)
(0.913599 0.343462 2.85629e-21)
(0.842976 0.282004 0)
(0.874521 0.276373 1.78757e-19)
(0.911709 0.278977 -3.32918e-21)
(0.940261 0.420889 9.39456e-19)
(0.898039 0.484323 2.45028e-19)
(0.900625 0.447257 -2.58775e-19)
(0.818201 0.431318 2.77566e-19)
(0.803355 0.43159 1.6622e-19)
(0.770441 0.416116 -1.61831e-19)
(1.02762 -0.000449819 2.82529e-19)
(1.01991 -5.49136e-05 0)
(1.01854 0.000780891 1.86622e-19)
(1.02109 -0.00211465 -4.20761e-19)
(1.02212 0.00441399 2.04907e-19)
(1.02045 0.0111425 -4.31142e-19)
(1.02149 0.0104486 0)
(1.0211 0.0104359 -8.90347e-20)
(1.01591 0.00776132 2.23031e-19)
(1.01687 0.0102644 -1.12823e-19)
(1.01754 0.0095451 8.307e-20)
(0.0310994 1.30416 0)
(0.0356118 1.33886 0)
(0.0382284 1.30308 0)
(0.0439031 1.26737 0)
(0.0654559 1.3673 3.10929e-20)
(0.0741054 1.33766 -5.45306e-21)
(0.114981 1.49059 -1.99092e-20)
(0.0870672 1.34259 1.38802e-20)
(0.0327401 1.43653 -3.36593e-20)
(0.0365768 1.42845 2.57906e-20)
(0.0591328 1.34841 -1.03192e-21)
(0.053936 1.3486 -1.77432e-20)
(0.046623 1.32539 -2.79293e-21)
(0.0400894 1.34709 -3.71822e-21)
(0.109508 2.37979 -8.84755e-20)
(0.0928773 2.42684 0)
(0.170881 2.07106 5.43166e-20)
(0.114716 1.70838 2.56142e-20)
(0.236751 2.05672 -4.34795e-20)
(0.208329 2.44282 0)
(0.271388 2.39663 -2.70218e-19)
(0.308073 2.39499 1.91092e-19)
(0.226334 2.01014 -1.26127e-19)
(0.152462 2.17255 8.2628e-20)
(0.154669 2.29064 0)
(0.0138161 1.88108 -3.28675e-20)
(-0.0049554 2.4099 -5.80579e-20)
(0.00137372 2.16198 0)
(0.0109855 2.46868 -5.79559e-21)
(0.0255773 2.31394 2.10027e-20)
(0.020644 1.38422 2.49666e-21)
(0.0184302 1.37069 -4.03738e-20)
(0.0187511 1.37697 1.15016e-20)
(0.0217525 1.37439 1.32782e-20)
(0.0279825 1.40305 0)
(0.0141225 1.35934 0)
(0.0084769 1.27528 1.57629e-20)
(0.00793967 1.35136 -5.25703e-21)
(0.0150923 1.34659 0)
(0.0146148 1.27314 1.10302e-20)
(0.00919635 1.18461 -2.23273e-20)
(1.03946 0.0102599 0)
(1.04534 0.00686752 -2.99526e-20)
(1.03859 0.0203369 -2.14567e-19)
(1.0474 0.0190821 0)
(1.05086 0.0189563 0)
(1.0365 0.0106159 -2.78304e-21)
(1.03135 0.0101835 3.45347e-19)
(1.03181 0.0158111 4.22523e-19)
(1.02579 0.0199147 0)
(1.02344 0.0202897 0)
(1.03497 0.0247275 2.14926e-19)
(1.02667 0.0255752 0)
(1.02488 0.0253712 0)
(-0.0303028 2.0292 0)
(0.0058919 1.65389 -3.3879e-21)
(-0.0109362 1.77303 -7.8847e-21)
(0.00893774 1.35889 0)
(-0.0142965 1.56009 1.12746e-20)
(0.00667541 1.45643 -7.70118e-21)
(0.0241137 1.38199 0)
(0.38079 1.67684 0)
(0.364641 1.29188 -7.1957e-20)
(0.31048 1.34109 0)
(0.420438 1.28739 5.41124e-20)
(0.467586 1.45194 0)
(0.447194 1.3973 -1.21818e-20)
(1.02984 2.6834 -7.3004e-21)
(0.957305 2.40989 -4.16477e-19)
(0.905291 2.19008 4.79265e-19)
(0.838849 2.37395 1.17157e-19)
(0.83923 2.49782 0)
(0.91155 2.49127 0)
(0.912978 2.36976 0)
(0.894261 2.3549 -4.28491e-19)
(0.684873 2.46149 -1.86701e-19)
(0.795491 2.45789 -4.48116e-20)
(0.807622 2.42739 3.55036e-20)
(0.685452 2.38871 0)
(0.790748 2.38694 0)
(0.74644 2.39719 -1.62073e-19)
(0.764343 2.49307 0)
(0.613695 1.10519 0)
(0.483044 0.92284 -2.22764e-19)
(0.562777 0.950386 -1.4379e-20)
(0.52254 1.05205 0)
(0.525505 1.00396 3.37253e-19)
(0.771711 0.887647 -6.09381e-20)
(0.777201 1.0096 0)
(0.750267 0.955495 9.28006e-20)
(0.635142 1.04236 0)
(0.643933 0.946107 0)
(1.16516 2.75573 -1.15016e-19)
(1.14191 2.82137 -5.55133e-20)
(0.937951 2.33557 6.9326e-20)
(0.89884 2.31415 -4.33439e-20)
(1.1279 2.72599 0)
(1.08041 2.69445 5.46091e-20)
(1.08709 2.47775 -1.47124e-19)
(0.979033 2.23074 -1.36674e-20)
(0.492472 1.35383 0)
(0.501378 1.06987 -6.03007e-20)
(0.558924 1.1452 0)
(0.865937 0.218188 0)
(0.79135 0.169598 0)
(0.735183 0.136656 0)
(0.859576 0.22122 -2.8252e-19)
(0.764693 0.210888 1.65389e-19)
(0.935932 0.0739081 -1.77907e-19)
(0.950859 0.120845 0)
(0.928509 0.128362 7.61449e-20)
(0.868185 0.106934 3.06397e-19)
(0.847441 0.06713 -1.92307e-19)
(1.17324 3.36637 -2.99449e-19)
(1.22481 3.28763 0)
(1.13871 3.38463 -5.9019e-19)
(0.638417 3.54286 5.15627e-19)
(0.850797 3.1085 1.28826e-20)
(0.509967 0.854222 2.63772e-19)
(0.418237 0.84666 0)
(0.327269 0.50456 -6.50939e-20)
(0.454991 0.681607 3.69704e-19)
(0.548373 0.469616 -9.09461e-20)
(0.520478 0.519888 1.02309e-19)
(0.658398 0.529898 2.23777e-19)
(0.692101 0.546385 0)
(0.648793 0.610289 0)
(0.604111 0.546516 0)
(0.970453 0.598678 5.08743e-20)
(0.900188 0.532941 -2.36594e-19)
(0.92172 0.566328 1.86134e-19)
(0.957967 0.504712 -1.84686e-19)
(1.06722 0.477148 0)
(1.05716 0.561318 -4.80653e-20)
(0.842804 0.385856 -3.77768e-19)
(0.847803 0.372296 -4.59993e-19)
(0.794928 0.376335 2.92917e-19)
(0.792756 0.35179 -2.97942e-19)
(0.842231 0.307706 -2.338e-19)
(0.792966 0.30746 2.87781e-19)
(1.02662 0.00563617 -2.19147e-19)
(1.02632 0.00597033 4.53922e-19)
(1.02945 -0.000769664 2.741e-19)
(1.03314 0.000436966 -3.31555e-19)
(1.03292 0.00726376 0)
(1.02998 0.00812086 -5.42854e-19)
(0.0627374 1.63551 1.44782e-20)
(0.044783 1.56335 0)
(0.0872722 1.68278 1.04944e-19)
(0.0951341 1.6664 -9.40342e-20)
(0.0896419 1.51011 3.7194e-20)
(0.0885176 1.49426 0)
(0.00743605 1.68139 0)
(-0.00181118 1.48588 -6.72791e-21)
(-0.00417369 1.42432 6.04131e-21)
(-0.00660334 1.55148 1.19218e-21)
(-0.000914754 1.88977 -1.09992e-20)
(-0.01863 1.9413 6.59357e-21)
(0.494031 1.3705 -1.40248e-19)
(0.489294 1.37812 1.50763e-19)
(0.443719 1.28544 -3.7958e-20)
(0.432316 1.28843 4.79359e-21)
(0.623802 1.29554 0)
(0.544055 1.38258 1.879e-20)
(0.560765 1.39342 -1.82314e-20)
(0.454429 1.27178 3.68072e-20)
(0.508308 1.22869 0)
(0.553475 1.18987 0)
(0.646804 2.41941 2.80178e-19)
(0.669337 2.4615 5.56145e-19)
(0.708559 2.47565 -3.81537e-19)
(0.607893 2.45736 -8.92104e-20)
(0.56233 2.54347 1.30084e-19)
(0.523651 2.52483 -3.35267e-19)
(0.972754 2.37526 -2.67213e-19)
(1.00914 2.38618 0)
(0.915473 2.16869 -3.11394e-19)
(1.0506 2.67488 0)
(1.05355 2.66141 0)
(0.605539 2.25454 -7.94733e-20)
(1.0286 3.15802 3.69102e-20)
(0.896263 3.01809 1.96927e-20)
(0.286796 0.911114 0)
(0.326419 0.754469 -1.38303e-19)
(0.466216 0.722222 -1.40097e-19)
(0.402076 1.98182 0)
(0.479128 2.78598 -9.12015e-21)
(0.435268 2.56914 0)
(0.679675 0.671481 -3.74333e-19)
(0.765084 0.683812 5.06531e-19)
(0.792918 0.618918 -4.97845e-19)
(0.672026 0.63649 -4.82773e-20)
(0.721907 0.593294 -1.98762e-19)
(1.0139 2.76412 -2.78756e-20)
(1.0463 2.83329 -6.50148e-20)
(0.656379 2.13929 3.07758e-19)
(0.583658 1.71596 -2.12401e-19)
(0.710299 1.90782 -1.91311e-19)
(0.995494 2.46894 -4.68771e-20)
(0.996725 2.45712 1.22349e-19)
(0.668502 1.87458 1.0796e-20)
(0.459434 1.33671 7.01296e-20)
)
;

boundaryField
{
    wall-4
    {
        type            noSlip;
    }
    velocity-inlet-5
    {
        type            fixedValue;
        value           uniform (1 0 0);
    }
    velocity-inlet-6
    {
        type            fixedValue;
        value           uniform (0 3 0);
    }
    pressure-outlet-7
    {
        type            zeroGradient;
    }
    wall-8
    {
        type            noSlip;
    }
    frontAndBackPlanes
    {
        type            empty;
    }
}


// ************************************************************************* //
