/*--------------------------------*- C++ -*----------------------------------*\
| =========                 |                                                 |
| \\      /  F ield         | OpenFOAM: The Open Source CFD Toolbox           |
|  \\    /   O peration     | Version:  4.0                                   |
|   \\  /    A nd           | Web:      www.OpenFOAM.org                      |
|    \\/     M anipulation  |                                                 |
\*---------------------------------------------------------------------------*/
FoamFile
{
    version     2.0;
    format      ascii;
    class       volScalarField;
    location    "20";
    object      p;
}
// * * * * * * * * * * * * * * * * * * * * * * * * * * * * * * * * * * * * * //

dimensions      [0 2 -2 0 0 0 0];

internalField   nonuniform List<scalar> 
918
(
0.209808
0.885001
0.0113807
0.208775
-0.00154382
0.852691
-0.856638
0.3864
0.189637
-0.474083
-0.0718234
0.178442
0.713288
0.479696
-1.47233
0.00565293
0.340883
-0.7353
0.188643
-0.00450648
0.463003
0.196178
0.199158
0.189565
0.251576
0.473701
0.59342
0.00602227
-0.00104414
-0.0041806
0.00580789
-0.00900835
-0.00262295
0.736037
0.78667
0.809216
0.158859
-0.00114194
-0.689875
-0.779456
-0.764324
-0.906616
0.376246
0.380923
-0.509741
0.39058
0.406232
0.177529
0.188901
0.189753
0.191108
0.189999
0.191452
0.1754
-0.470978
-0.488977
-0.462169
-0.449672
-0.0908331
-0.112936
-0.161823
-0.0476218
-0.0375081
0.115077
0.174961
0.173354
0.18409
0.194535
0.823784
0.794775
0.82042
0.737378
0.752241
0.690968
0.662845
0.500079
0.521129
0.46594
0.455904
-1.90218
-2.87187
-0.878838
-0.622708
0.000815639
0.00679231
0.00802877
0.327354
0.3359
0.338746
0.35384
0.727589
-0.71552
-0.873003
0.188505
0.187436
0.195703
0.196046
0.193184
0.191295
0.00654743
0.0109178
-0.0166552
-0.00298689
-0.00795397
0.445477
0.439372
0.191166
0.187861
0.200569
0.221987
0.212002
-0.0412466
0.259805
0.280605
0.275958
0.454616
0.452494
0.459455
0.567768
0.530751
0.631224
0.654539
0.0143592
0.00415369
-0.00163237
-5.43543e-05
-0.000837266
0.154892
0.146852
0.171895
0.162437
0.164604
-0.0827716
-0.215833
0.0894378
0.114698
-0.596784
-0.676989
-0.776393
-0.800937
-0.923656
0.228094
0.364531
0.366744
-0.518059
-0.446183
-0.590131
-0.359931
-0.435747
0.168022
0.1749
0.169326
0.184653
0.179553
0.181129
0.193093
0.190166
0.19172
0.191301
0.272617
0.0887114
0.0162677
-0.599798
-0.492397
-0.579082
-0.44304
-0.393699
-0.101184
-0.106731
-0.116267
-0.050533
-0.351871
-0.22016
-0.285637
-0.0187999
-0.0116798
0.108503
0.10037
0.12478
0.13124
0.167428
0.168058
0.170924
0.16917
0.6131
0.635497
0.644015
0.617664
-3.90044
-6.97884
-0.289988
-0.147166
0.0026071
0.00336714
0.00239455
0.00562176
0.00341236
0.000992216
-0.00466918
-0.000966272
0.00825869
0.00711793
0.312835
0.318544
0.633772
0.626432
0.614179
0.597496
0.176444
0.178587
0.184205
0.179606
-0.00016875
0.0105267
0.00422708
0.407304
0.426336
0.423667
-0.0758777
-0.163041
0.00650724
0.0331904
0.299562
0.285
0.302076
0.338673
0.375188
0.660912
0.67894
0.679194
0.687375
0.732463
0.745436
0.711138
0.135884
0.144353
0.140006
0.175388
0.173134
0.173952
0.16785
0.170601
0.166539
-0.38871
-0.75198
0.197856
0.205262
0.161413
0.17301
0.303199
0.364905
0.347111
0.355757
0.361088
-0.293191
-0.363939
-0.0038959
-0.0225319
0.0580027
0.0890497
0.0724894
0.583991
0.545849
0.59584
0.568842
0.529624
0.555038
-0.792437
-2.05094
-1.29877
0.216613
0.0221852
0.112565
-0.0281414
-0.0312464
-0.0203796
0.605096
0.692625
0.319985
0.495464
0.550493
0.4178
0.449503
0.503808
0.427649
0.462157
0.497713
0.479979
0.2019
0.20079
0.175939
0.427848
0.481286
-0.181857
-0.225639
-0.293969
-0.100216
-0.056006
-0.0822427
0.659429
0.545784
0.624514
0.187479
0.188061
0.0113902
0.0187782
0.192002
0.192128
0.0063991
0.00482972
0.0943071
-1.17346
-0.199738
0.179767
0.171007
0.187522
-0.465683
0.0529318
-0.122198
-0.0530104
0.0825148
0.178064
0.124854
0.0923154
0.00538639
0.0148138
-0.00796658
-0.546532
0.185028
0.183199
0.187098
0.188178
0.188822
0.00543534
0.00705614
0.00514011
-0.00197716
0.00231579
-0.00113171
0.152886
0.167655
-0.507649
0.187047
0.189321
0.189048
0.18163
0.187587
0.185455
0.0120994
0.00611733
0.00253909
-0.0846149
0.0285542
0.351398
0.466491
0.307756
0.0750815
-0.172483
0.246004
0.315279
0.213005
0.378733
0.349833
0.37715
-0.135905
-0.29094
-0.127803
-0.1866
0.177864
0.176364
0.169361
0.166289
0.182677
0.180878
0.18496
0.181965
0.184806
0.186366
-0.482464
-0.440158
-0.451296
-0.486795
0.00683286
0.280521
-0.0883507
0.0243031
-0.1119
-0.0891028
-0.0584932
-0.192661
-0.228596
-0.191544
0.0359473
-0.00117139
-0.0811218
0.0699629
-0.00103544
-0.145993
-0.0184379
-0.0890458
0.1723
0.168776
0.177832
0.18464
0.13293
0.134118
0.107008
0.123177
0.111714
0.0569026
0.0899304
0.0687237
0.00731004
0.00754844
0.00610973
0.0182621
0.0154082
0.0076793
0.00822401
0.0125846
0.00469376
0.0054949
-0.00516365
0.00413972
-0.517023
-0.630943
0.635696
0.613713
-0.205012
0.174135
0.180649
0.177314
0.18227
0.185214
0.186041
0.183874
0.180386
0.168412
0.170465
0.166318
0.166044
-0.44273
-0.585549
-0.410983
-0.465923
-0.213935
0.291217
0.0400806
-0.0286731
-0.0273771
0.185512
0.595612
0.377567
0.404954
0.447181
-0.701945
-0.30764
-0.631598
-0.0399924
-0.223378
0.347475
0.401993
0.427483
0.370137
0.318946
-0.594932
0.177674
-0.379437
-0.339073
-0.145151
-0.243644
0.404711
0.334458
0.340889
0.36684
0.391728
0.339024
0.319423
0.317006
0.356351
0.360244
0.157879
-0.0507873
-0.107124
-0.136108
0.324842
0.197073
0.249089
0.169446
0.172278
0.175575
0.173879
0.157309
0.164583
0.160306
0.165927
0.168414
0.178322
0.178231
0.173859
0.176006
-0.442348
-0.456582
-0.425216
-0.469892
-0.482931
-0.548813
-0.418411
-0.289804
-0.378325
-0.0602917
-0.0164013
-0.291335
-0.410863
-0.375868
-0.371561
-0.15608
-0.0788375
-0.490167
-0.120295
-0.350127
-0.395111
-0.0956679
-0.0433573
-0.182551
-0.260455
-0.345088
-0.225907
-0.118898
-0.176371
-0.185915
-0.0116
-0.0516985
-0.0447178
-0.0193338
-0.417623
-0.407334
-0.37348
-0.523185
0.0120382
0.0144613
0.0146038
0.00609828
0.0164859
0.0043792
0.16587
0.166381
0.165487
0.180616
0.192109
0.207449
0.174629
0.151984
0.144045
0.14573
0.122388
0.130508
0.127714
0.138846
0.156416
0.164515
0.163983
0.166468
0.150087
0.151218
0.140976
0.144306
0.124731
0.106681
0.0965954
0.0100273
0.00753541
0.00842502
0.00843923
0.010495
0.0110383
0.0284787
0.0198745
0.0229205
0.0203003
0.0124253
0.0144796
0.0100352
-0.432235
-0.360261
-0.531623
-0.567168
-0.638
0.546157
0.645495
0.491523
0.255871
0.260771
0.48621
0.578778
0.25463
0.413114
0.471569
0.194348
0.442298
0.178895
0.178186
0.175715
0.175265
0.176514
-0.347356
-0.245441
-0.242613
-0.184013
-0.0722481
0.0501286
-0.0495749
-0.17794
-0.0330208
-0.0285851
0.28471
0.300289
0.245577
0.271455
0.271222
0.100425
0.173356
0.227231
0.187585
0.224518
0.244543
0.211959
0.236941
0.187085
0.146423
0.148162
0.0962485
0.107515
0.0863268
0.0715252
0.167997
0.147566
0.156331
0.149928
0.169416
0.196429
0.190343
0.215138
0.22841
0.156964
0.120303
0.125975
0.1544
0.119206
0.131076
0.144257
-0.140603
-0.21003
-0.174722
-0.456714
-0.360199
-0.435759
-0.468307
-0.360328
-0.0665943
-0.816792
-0.864593
-1.42697
0.117637
0.650493
0.360693
0.299335
0.389936
0.362409
0.361801
0.40729
0.408902
0.313364
0.327333
0.334011
0.282716
0.306415
0.342336
0.336799
0.168642
0.0382028
0.0259643
-0.00245138
-0.117695
-0.0852269
0.11215
0.0301587
-0.0386799
-0.0215763
0.137012
0.037961
0.0969793
0.12467
0.0463809
0.0222422
0.208431
0.281217
0.27143
0.242044
0.161404
0.173269
0.200989
0.235857
0.260212
0.297688
0.166026
0.171302
0.172535
0.17042
0.167587
0.170069
0.169997
0.172417
0.173621
0.176327
0.175261
-0.313071
-0.371507
-0.436276
-0.36724
-0.570875
-0.562509
-0.426258
-0.440144
-0.492671
-0.570232
-0.563781
-0.512446
-0.466311
-0.447235
-0.366774
-0.282006
-0.255525
-0.340979
-0.0782722
0.0655082
0.115383
0.00100017
-0.0855106
-0.0791251
-0.0500756
-0.399355
-0.213996
-0.236358
-0.240666
-0.405157
-0.0715462
-0.063107
-0.0709316
-0.0707303
-0.106176
-0.0447929
0.00210331
-0.00420891
-0.0124915
-0.0060176
0.00134
0.156282
0.149716
0.14682
0.143945
0.143625
0.151833
0.156413
0.159906
0.165534
0.165735
0.15737
0.161476
0.164264
0.0177701
0.0115103
0.0162792
9.212e-05
0.00600029
0.0116897
0.00360012
-0.237856
-0.288466
-0.299205
-0.342051
-0.473774
-0.414447
0.133319
0.104382
0.158738
0.324323
0.191323
0.115029
0.190951
0.286707
-0.0853872
0.105546
-0.0624208
0.520597
0.396356
0.538339
0.170047
-0.127753
0.0178453
0.0823275
-0.134444
-0.0575987
-0.0305187
-0.12872
-0.0987793
-0.0789484
0.0224694
-0.0846013
-0.112218
-0.361015
-0.170233
-0.0352786
-0.0512859
0.0715976
0.136699
-0.112445
-0.188653
-0.21636
0.274629
0.294133
0.31466
0.282942
0.309688
0.232099
0.224164
0.242695
0.25202
0.245897
-1.15159
-0.873429
-1.77486
-1.06475
-0.63631
0.146719
0.103413
0.393083
0.288994
0.365665
0.349609
0.32045
0.281613
0.287629
0.325356
0.0335424
0.134473
0.110926
0.116157
0.0147967
-0.0366028
0.248386
0.24146
0.278971
0.302166
0.271789
0.305311
0.163835
0.16335
0.163491
0.160179
0.159079
0.159815
-0.506794
-0.551412
-0.43168
-0.4137
-0.450226
-0.500556
0.0275661
-0.00382558
-0.00481406
-0.00136089
0.0291157
0.0251574
-0.204511
-0.266346
-0.324837
-0.306556
-0.356403
-0.426561
-0.443044
-0.339597
-0.248869
-0.252848
0.048859
0.292173
0.116224
0.283304
0.144022
0.186568
0.161215
0.14735
0.186365
0.0455829
0.117739
-0.107475
-0.633934
-0.517033
0.369686
0.442835
0.218984
0.0803916
-0.210063
-0.0657649
0.200469
0.133318
0.177194
0.247164
0.240888
-0.363257
-0.32007
-0.0323325
0.168045
-0.136584
-0.189686
-0.181405
-0.0254443
-0.0717169
)
;

boundaryField
{
    wall-4
    {
        type            zeroGradient;
    }
    velocity-inlet-5
    {
        type            zeroGradient;
    }
    velocity-inlet-6
    {
        type            zeroGradient;
    }
    pressure-outlet-7
    {
        type            fixedValue;
        value           uniform 0;
    }
    wall-8
    {
        type            zeroGradient;
    }
    frontAndBackPlanes
    {
        type            empty;
    }
}


// ************************************************************************* //
