/*--------------------------------*- C++ -*----------------------------------*\
| =========                 |                                                 |
| \\      /  F ield         | OpenFOAM: The Open Source CFD Toolbox           |
|  \\    /   O peration     | Version:  4.0                                   |
|   \\  /    A nd           | Web:      www.OpenFOAM.org                      |
|    \\/     M anipulation  |                                                 |
\*---------------------------------------------------------------------------*/
FoamFile
{
    version     2.0;
    format      ascii;
    class       surfaceScalarField;
    location    "20";
    object      phi;
}
// * * * * * * * * * * * * * * * * * * * * * * * * * * * * * * * * * * * * * //

dimensions      [0 3 -1 0 0 0 0];

internalField   nonuniform List<scalar> 
1300
(
3.75095
5.62643
-5.98904
3.75095
-5.8751
5.62643
-4.58606
4.58606
-1.25439
1.25439
1.87671
1.87424
-2.73993
2.73993
-3.84303
3.84303
-2.65456
2.65456
-5.24645
5.24645
-5.06853
5.06853
4.67491
-4.67491
-4.75145
4.75145
-1.73651
1.73651
-3.95698
3.95698
3.16943
-3.16943
-4.59765
4.59765
-0.447394
0.447394
-0.55276
4.30371
3.19819
3.19819
-2.36563
2.36563
-4.85564
4.85564
6.21782
-6.21782
9.05644
-9.05644
-3.0674
-3.43283
1.32988
-8.23992
-4.54521
-4.54521
-8.44023
8.44023
-2.8138
2.81263
2.94081
-2.94081
-1.83265
1.83265
-4.50596
-0.0801024
-4.50596
4.59533
-0.00927072
4.59533
-1.37705
0.122656
-1.37705
4.04672
-4.04672
1.10806
0.146332
1.10806
3.06443
-3.06443
-1.87697
3.75368
1.87399
-1.87157
6.17528
-1.87938
3.75362
-5.74048
5.74048
-3.11782
0.377897
-3.11782
2.57974
0.16018
2.57974
-5.1601
5.1601
-3.41195
-0.431085
-3.41195
4.16075
-0.317717
4.16075
2.88028
-2.88028
-2.68516
0.0305962
-2.68516
2.60717
0.0473935
2.60717
0.35372
5.27271
-5.98015
8.79278
-5.27271
0.0262608
5.20839
0.0380631
5.20839
-5.10617
0.0376448
-5.10617
5.00988
0.0586427
5.00988
4.75603
-0.0811191
4.75603
-4.79563
0.120712
-4.79563
-3.33648
-3.48314
-4.84569
0.0942376
-4.84569
-1.72037
-0.016144
-1.72037
1.69805
0.038458
1.69805
-3.44196
3.44196
-4.33455
0.377579
-4.33455
3.12323
0.0462023
3.12323
1.86908
1.88188
5.62003
-5.62003
2.4506
-4.542
-0.0556536
-4.542
-4.691
-4.36544
4.691
-0.0933487
-0.742773
0.295379
-0.742773
3.16037
0.0378231
3.16037
2.52816
0.0790094
-2.52816
0.162521
3.33747
-3.33747
1.73672
0.628917
1.73672
-5.56996
5.56996
4.95005
0.0598329
-4.95005
0.0944062
6.15729
0.0605286
6.15729
-6.19981
-0.0180089
-6.19981
3.33293
-6.76577
-3.46221
4.65081
0.100644
-4.65081
0.105596
2.90129
0.0395162
2.90129
-2.91586
2.91586
-2.98185
0.0410448
-2.98185
-2.23465
0.402
-2.23465
1.52595
0.306695
1.52595
-4.37262
-0.133332
-4.37262
-4.5111
0.176541
4.5111
0.084234
0.985118
-0.985118
-1.51468
0.137628
-1.51468
-4.20112
-0.171503
4.20112
-0.1544
-3.9029
-0.143819
-3.9029
-3.0225
0.0406464
3.0225
0.0419288
3.1129
0.0474699
-3.1129
0.0484713
-1.87097
3.75284
-1.87999
3.75397
-5.42209
-0.318395
-5.42209
5.87696
-0.136481
5.87696
3.53315
0.423822
-3.53315
0.415332
2.63012
-0.0503725
2.63012
-5.2433
0.0831988
-5.2433
5.11941
0.0406829
5.11941
2.93717
-0.307048
-2.93717
-0.47478
4.35247
-0.191724
4.35247
2.93985
-0.059568
2.93985
-2.84553
-0.0347511
-2.84553
2.77746
-2.77746
2.71607
0.061388
-2.71607
0.0309184
-11.1327
11.1146
-0.0351344
-11.0975
5.17325
5.17325
4.17147
0.584558
4.17147
-5.00788
0.212254
-5.00788
3.3043
-6.76651
3.47355
-6.81003
3.46901
-11.7089
3.37731
-6.86045
5.05627
-5.05627
4.9528
0.103476
-4.9528
0.107105
-1.74584
0.0254708
-1.74584
-2.80779
-0.634165
-2.80779
4.141
-0.699045
4.141
-3.02952
3.02952
-3.0782
0.0486816
3.0782
0.0450295
4.46607
-0.113596
-4.46607
-0.0759299
0.93689
0.171168
-0.93689
0.194117
3.54003
-0.20256
3.54003
-3.14475
-0.192726
-3.14475
-1.74691
0.00107244
1.74691
-0.0101932
-5.81854
0.248584
-5.81854
-11.1908
0.0932717
-11.1527
-6.10654
-6.10654
2.33369
11.1265
-2.8566
0.011074
2.8566
0.0446885
2.97475
0.0547687
-2.97475
0.0588898
-2.84918
0.071719
2.84918
0.0666822
-2.63303
0.398378
-2.63303
-1.11889
1.11889
-1.30299
0.184105
1.30299
0.222962
1.20873
-0.22361
1.20873
1.61392
0.0841318
-1.61392
0.0992472
-3.79935
-0.103548
-3.79935
5.81031
0.0666474
5.81031
-3.02129
-0.123454
3.02129
-0.081442
-0.0332697
11.1479
-5.13998
0.0338121
5.13998
-11.2084
11.2423
-3.2705
0.637475
3.2705
0.900974
5.29458
0.275377
-5.29458
0.286703
5.12356
-0.00414447
-5.12356
0.0672851
-2.32506
-0.482732
-2.32506
-4.89344
-0.528649
4.89344
-0.752437
-11.4743
-0.203014
11.6773
-11.4156
6.02156
0.135732
-6.02156
11.378
-0.979591
-0.00552731
0.979591
0.139296
1.4915
-0.282773
1.4915
3.7082
-0.168169
-3.7082
-0.0911552
-5.52671
0.28341
5.52671
0.283608
-1.89039
-0.434668
1.89039
-0.398889
-4.26617
4.30399
1.90911
-3.27536
-3.49041
-7.6408
1.85198
1.90087
4.30257
-7.24181
-4.46712
-7.13622
7.27093
-6.98422
-9.305
9.22388
7.4693
-7.61311
-5.78734
5.83237
6.48128
-6.43935
1.87789
1.87579
7.04384
-6.66594
-15.8049
15.4865
7.69556
-8.12664
14.5263
-14.4431
-14.3314
14.3272
-5.77251
5.80311
-6.65479
6.62004
-6.82878
6.74734
-3.24736
-3.56267
9.48012
-9.38588
11.5613
-11.617
-8.38889
8.76647
3.3813
0.922693
3.42877
-1.88243
3.76031
-1.8712
3.78031
3.48389
-6.73124
3.28263
-6.77304
6.02829
5.53305
-5.93494
-1.70586
-5.89677
5.93629
-5.83018
5.89687
8.9576
-9.0377
-1.88563
3.76142
-1.86834
3.76921
-3.42624
-2.36109
3.38004
0.922531
5.76178
3.71834
-5.86242
-1.2738
-7.7408
7.57263
-7.99273
7.80001
-0.44966
5.82093
-5.37127
4.40598
-1.54505
7.36598
5.72588
5.93813
5.86687
-5.59149
1.11736
-6.48863
-6.39422
-2.5754
2.71303
2.58187
-2.43554
5.8806
1.58869
5.7262
-5.505
-2.10812
-5.60855
3.82046
2.01191
3.86914
4.07631
2.40497
4.11695
3.0304
-3.03631
0.00590568
-3.05576
6.08617
0.725115
-5.41686
-4.49432
3.72314
3.3207
3.88332
-5.17087
-1.49508
-4.75554
-9.48255
-6.32238
-10.0112
10.2067
5.2798
10.0702
-11.8959
12.1795
5.77292
1.92263
5.45521
-4.34486
-3.78178
-4.81964
11.4604
-0.634908
-10.8255
-8.72169
-5.60967
8.68101
5.84533
8.40784
5.91937
8.47513
3.09441
8.366
-8.93975
3.33008
-3.85609
-1.91643
-3.82517
3.74714
2.05597
3.79453
-4.15595
-2.49885
-4.14487
-4.19519
-2.63359
4.25476
2.36528
-4.29519
-3.69754
4.41865
2.32869
3.19418
-7.6613
3.66627
-7.22894
-6.73095
-2.65493
-6.62385
4.28912
2.51749
-6.80661
-2.44212
10.921
-5.38798
9.21516
-7.01456
-4.60242
-7.09049
-6.79644
-1.59245
-6.6199
-8.77139
8.28866
-9.06923
8.37019
12.7045
-5.65629
-7.04823
-3.96801
-2.47134
3.91954
-0.490767
-3.71145
3.71735
0.0488671
3.82918
4.75187
4.2611
-3.8941
-1.93609
-3.83521
3.83381
2.06306
3.90553
6.78153
2.17607
6.77226
-6.41802
-2.61968
-6.55135
9.06202
-8.66002
2.96756
-2.96649
5.23186
2.56815
-5.0293
-2.7115
6.02522
-3.03104
-2.99419
-12.2188
10.6006
1.61817
-4.85279
-0.446803
0.000591953
-5.50926
-3.79574
5.38854
0.549586
11.1502
7.35445
-5.51221
5.76079
6.16509
6.22492
-0.169304
5.80049
-5.16301
5.27494
-2.25809
-3.01685
5.25213
-5.42363
-1.29922
-5.18041
3.88119
0.302572
1.84913
-1.55375
-2.05592
-0.51948
-1.95667
1.58314
0.998729
1.75431
0.977833
1.7352
-2.96332
0.577688
2.38563
-1.98549
-1.85785
-3.554
-1.035
4.589
5.54522
2.02741
-5.45406
-0.154485
2.73501
-2.69655
-0.697274
-2.85673
2.16633
-2.8636
-3.52083
-1.901
5.42184
-3.37133
-0.463876
3.31656
0.552577
-3.82256
-2.07421
3.78152
0.335434
-3.12672
6.20153
-3.07481
-5.06281
2.52888
3.55728
4.54079
-4.7898
2.44433
2.34547
-1.23252
3.17201
0.711317
3.12163
-6.69384
5.19876
5.59983
3.16664
-6.02365
1.26812
-5.42572
8.71061
-7.81387
-0.896731
3.66338
5.04723
7.19097
5.51355
-5.78087
12.9718
-1.67426
-6.13961
7.09998
-3.93334
4.85998
-8.79331
-10.3735
4.23391
-10.762
12.237
-1.47503
-3.20958
-8.68636
13.9715
-1.45053
-12.521
8.61971
-6.46541
-3.36249
9.82791
-7.10032
7.14427
-3.52962
-3.61466
-9.88044
-4.5627
9.59703
2.58252
-9.11372
12.4438
-0.747719
5.30711
0.148101
5.11538
5.16508
-5.73377
0.568696
1.93524
-5.46486
3.34337
-9.07714
-5.26351
9.92821
-4.6647
-7.91844
-7.41217
-0.506268
1.6666
10.7772
-7.58598
5.45741
2.12856
3.31822
0.587311
-3.3796
-0.445565
0.347439
4.48949
-4.83693
4.14197
4.22098
3.40227
1.08722
3.80168
2.13461
-3.84637
-0.298503
-4.10087
1.46728
-1.73559
-3.62822
5.0955
-4.0524
0.424182
-2.70309
-3.55855
6.26164
-4.61952
3.04986
3.15167
5.11292
-4.94856
1.39001
-2.44088
-2.50768
2.66239
-4.39798
1.94278
3.15272
4.27147
0.57393
5.14053
4.78767
-7.65802
0.429085
8.50601
-7.23222
2.07339
6.40174
-7.5308
0.118635
-6.50521
0.965209
-6.35319
-5.8414
5.12778
-6.72023
-3.66554
6.16692
0.605339
-6.25115
-0.368749
-5.94506
-2.82634
-6.37973
-3.05265
-6.01658
-8.83353
-1.63792
-7.19561
6.65074
-6.53516
-3.47604
7.2876
1.08259
-7.30283
7.2973
-7.38672
7.10394
0.0952259
3.62213
4.35633
1.88499
-2.38961
4.2746
-5.01613
7.19219
-8.36214
3.34601
3.8619
-6.48158
-4.50024
5.01504
4.04698
5.32174
8.93255
-10.5707
1.63814
-10.8778
12.2027
-1.32492
-16.6222
5.74436
-7.68963
2.69864
0.268925
2.72411
0.672017
2.40697
-3.07899
-2.29447
-2.30467
-2.25339
-3.2957
5.54909
1.09753
-3.32527
2.22774
-3.44542
4.54296
-0.0744398
-3.25083
5.21347
-2.80649
5.48239
-3.51986
1.96253
3.21873
5.50422
-2.28549
4.23537
-1.66722
1.77184
-4.05733
-1.52387
-3.01363
5.0696
-3.24802
3.6722
-0.232666
3.90486
-4.01024
0.979204
-0.607968
3.61301
3.77554
4.16989
-3.08267
2.88163
-4.54885
-1.1757
-3.97492
-0.822196
-0.374276
-3.69054
4.06481
6.05652
-6.4308
-5.28022
9.59155
-4.31133
7.74137
-5.41816
-2.32321
-4.261
-4.39902
3.86262
1.93787
9.67924
0.224146
-5.64231
-4.93887
-4.03789
3.21906
2.05588
-2.0562
3.67437
2.05561
-0.206481
0.590095
1.16422
1.94467
-1.35458
0.195414
1.74926
-1.35834
1.98631
0.748701
-2.07044
0.113769
-1.29484
3.46117
1.09079
-2.08952
0.734937
1.11384
-3.37193
4.69091
-2.37157
-2.31934
5.80476
1.1495
-3.52107
4.0309
-3.72833
2.26304
-3.29804
-1.25804
-4.98637
-3.39768
-2.47054
4.69828
-3.07856
5.10597
1.17744
-4.95149
6.12893
-3.52295
1.62195
-2.99394
3.74264
-1.02001
-1.97394
2.75243
2.6694
-2.86223
0.00549647
-0.109794
2.31332
-2.42311
-0.550283
-2.53577
-4.57026
4.9057
-2.1093
4.55363
2.16529
-1.91216
6.46579
1.81529
-3.72744
-3.24752
-3.71139
-1.38197
3.15882
-1.6218
-3.19784
-5.23646
3.50489
-0.383257
-6.59287
7.02989
-0.437022
-3.27217
-1.92659
5.58997
-6.89201
1.42715
-3.54864
3.48125
4.19256
3.80931
-11.9763
-0.544683
-6.69652
0.896681
-7.5932
5.94391
-3.61439
7.84831
-10.44
6.964
-9.35745
6.95157
-0.641624
6.28924
-5.72054
4.53627
-9.09897
-6.51645
6.25389
-4.33126
6.40199
-4.74893
11.1509
-5.49665
7.05982
4.09111
-1.62678
-5.46371
-6.59789
4.97111
0.461925
5.57731
4.95005
-2.81544
4.65155
2.24528
-4.68616
-2.1527
-6.55869
1.87253
-3.40702
-1.91994
3.79247
3.19298
3.78029
1.28479
-3.33473
7.15531
-7.66158
-2.49062
-3.35078
6.67574
-1.70463
4.27987
-7.63065
-2.07332
4.95037
-0.88923
-4.06114
0.70592
-4.37146
1.58525
-5.95671
5.13498
-5.50372
2.14647
-9.8361
-5.15636
-5.01706
-2.2247
-5.16202
-7.65603
5.43133
-1.91167
5.38563
-8.69058
7.80135
-3.51216
8.9435
-5.35658
-1.02315
5.75546
1.34848
10.292
0.100014
-4.60025
-1.82317
3.93103
-2.10786
1.39589
-3.59052
0.340506
2.46599
3.33876
-6.34718
-0.134399
-4.73465
-3.90306
7.95004
5.68849
11.745
1.17432
9.16271
-1.21267
10.337
4.10907
4.33203
-2.94928
4.58742
1.11553
4.46154
-0.847999
2.81053
1.87611
1.85996
0.83659
2.30157
1.47397
3.28077
0.201783
-2.10288
4.6488
-8.68669
-0.99351
-8.10214
1.12174
5.84246
-4.72072
3.14951
-1.09363
1.04165
0.218569
-1.83834
1.61977
-2.79828
-2.04482
-0.295562
-1.62556
2.36049
1.83562
-2.06493
-0.733351
0.332791
-3.73047
2.96525
-2.95975
-0.290345
5.83858
-2.70369
0.280579
-1.08174
-2.25519
-2.77467
2.6609
6.18266
0.28313
3.10785
5.18883
3.11462
0.299177
4.85265
-6.32769
-4.22449
-6.87237
-0.928462
4.66151
2.80284
7.97436
6.89395
5.18931
-2.44134
-10.1029
6.55071
-1.9633
5.22579
-1.16466
-4.79206
4.94063
2.25156
-5.54597
0.0422431
-4.74981
-6.71311
-0.584015
8.38537
-9.70796
8.68481
5.85847
1.33713
-4.34277
-0.674296
4.15866
0.173364
10.5104
-1.1833
-6.83423
8.01753
-4.65916
3.66565
0.868889
2.80548
2.48866
1.39503
-5.43921
-10.1599
-1.81194
-1.55999
-4.13128
0.457722
-2.29334
6.30014
-2.63448
3.97693
5.38305
6.4247
-2.20257
-4.22823
6.5139
-2.53697
3.88773
)
;

boundaryField
{
    wall-4
    {
        type            calculated;
        value           uniform 0;
    }
    velocity-inlet-5
    {
        type            calculated;
        value           uniform -3.75095;
    }
    velocity-inlet-6
    {
        type            calculated;
        value           uniform -5.62643;
    }
    pressure-outlet-7
    {
        type            calculated;
        value           nonuniform List<scalar> 8(5.98904 5.8751 6.50024 6.91004 6.81962 6.79514 6.77785 6.84632);
    }
    wall-8
    {
        type            calculated;
        value           uniform 0;
    }
    frontAndBackPlanes
    {
        type            empty;
        value           nonuniform 0();
    }
}


// ************************************************************************* //
