/*--------------------------------*- C++ -*----------------------------------*\
| =========                 |                                                 |
| \\      /  F ield         | OpenFOAM: The Open Source CFD Toolbox           |
|  \\    /   O peration     | Version:  4.0                                   |
|   \\  /    A nd           | Web:      www.OpenFOAM.org                      |
|    \\/     M anipulation  |                                                 |
\*---------------------------------------------------------------------------*/
FoamFile
{
    version     2.0;
    format      ascii;
    class       volVectorField;
    location    "20";
    object      U;
}
// * * * * * * * * * * * * * * * * * * * * * * * * * * * * * * * * * * * * * //

dimensions      [0 1 -1 0 0 0 0];

internalField   nonuniform List<vector> 
918
(
(0.985051 -0.000685723 0)
(0.00476341 2.96626 0)
(-0.0128956 1.58537 0)
(0.979823 0.0024191 0)
(-0.00380183 1.56359 3.10666e-21)
(-0.007043 2.9489 -7.84155e-19)
(0.85449 1.21694 3.10126e-19)
(0.42276 0.197999 -3.40515e-21)
(0.999903 -0.000342635 0)
(0.0594962 0.803975 0)
(-0.0420325 1.11694 0)
(0.769131 -0.0108904 0)
(0.0115119 2.93017 0)
(0.00178891 2.79504 0)
(-0.0191147 3.16273 4.862e-19)
(-0.0041458 1.45372 -2.33772e-21)
(0.547853 0.0918538 2.11437e-19)
(0.178086 1.2243 2.71133e-19)
(0.962318 0.00397563 0)
(0.00553402 1.32683 0)
(0.143254 0.247341 -1.85128e-19)
(1.0021 -0.00524816 0)
(1.00082 -0.0100161 0)
(0.976136 -0.00638947 0)
(0.679362 -0.0319229 0)
(0.0192178 2.63085 0)
(-0.0151514 2.91033 2.55535e-19)
(-0.0244034 1.60285 0)
(-0.0297637 1.73609 0)
(-0.0250022 1.59728 0)
(-0.00417045 1.84152 0)
(0.000826921 1.59074 -2.40967e-21)
(-0.00491442 1.46976 0)
(-0.0204588 2.9875 -2.73103e-23)
(-0.0169927 3.0054 6.22923e-19)
(0.00201466 3.00017 0)
(0.869453 -0.0100077 0)
(0.423218 0.96188 -1.49915e-20)
(0.830084 1.23376 -4.27898e-19)
(0.977108 1.06909 4.03242e-19)
(0.69643 1.33335 -7.16587e-20)
(0.695279 1.32213 4.04866e-19)
(0.453756 0.280069 3.32027e-21)
(0.445125 0.1864 0)
(1.16475 0.587621 0)
(0.428263 0.293821 1.56679e-20)
(0.382721 0.197935 -1.62683e-20)
(0.919371 -0.00741034 0)
(1.00032 6.69216e-05 0)
(0.999912 0.000315428 0)
(1.00332 -0.0077511 0)
(1.00094 -0.00104761 0)
(1.00021 4.26074e-06 0)
(0.00886221 1.75147 -1.23613e-19)
(0.0593695 0.937818 0)
(0.0695414 0.91831 0)
(-0.00472921 0.847398 0)
(-0.00118675 0.749188 0)
(0.0298343 1.51122 0)
(-0.0579734 1.18438 0)
(-0.0626332 0.990995 0)
(-0.0335761 1.30293 0)
(-0.0248908 1.20941 0)
(0.847109 -0.00159121 0)
(0.865291 0.0086138 0)
(0.779388 -0.00376685 0)
(0.859836 0.014133 0)
(0.755848 -0.0108231 0)
(0.015353 3.00064 2.80662e-19)
(0.0116985 3.00828 0)
(0.00649773 3.00261 0)
(0.014148 2.99717 3.08744e-24)
(0.00839779 2.95851 -4.24093e-19)
(0.0152106 2.98195 0)
(0.01121 2.90367 0)
(0.0255351 2.93038 5.3115e-25)
(0.00469191 2.8253 0)
(0.0320327 2.91544 0)
(-0.00603389 2.74399 0)
(0.30739 3.55983 0)
(-0.145929 3.6376 0)
(0.137846 3.25529 -4.48792e-19)
(-0.00975263 2.9916 0)
(-0.0193927 1.81887 0)
(0.00347034 1.61689 2.30538e-21)
(-0.0044677 1.46261 -2.97778e-21)
(0.599762 0.154676 -7.26457e-20)
(0.537833 0.0638056 -7.11312e-20)
(0.58639 0.189855 -2.19713e-19)
(0.528186 0.122586 -1.47701e-19)
(0.180079 0.873337 0)
(0.254264 1.36809 -2.72585e-19)
(0.375515 1.32313 4.50647e-19)
(0.987453 0.00826652 0)
(0.941563 0.00558659 0)
(1.00031 0.000416865 0)
(1.00326 0.00947667 0)
(1.00286 0.00790067 -3.93063e-19)
(0.991821 0.00983344 2.99995e-19)
(-0.00879411 1.48712 0)
(0.000188875 1.3167 0)
(-0.0350698 1.60943 0)
(-0.021777 1.52108 0)
(-0.000959541 1.36032 0)
(0.217313 0.26257 5.7192e-20)
(0.26102 0.243004 0)
(0.993438 -0.00809696 0)
(0.954574 -0.00602778 0)
(0.830829 0.0231072 0)
(0.799477 0.0351934 0)
(0.735056 -0.0241636 0)
(0.994689 -0.000814631 0)
(0.740494 0.0540576 0)
(0.595277 -0.00927351 2.79336e-19)
(-0.0355141 2.86546 1.20416e-19)
(0.0437536 2.90741 0)
(0.0573251 2.883 0)
(-0.00607306 2.69626 0)
(-0.0134485 2.98523 2.32652e-19)
(-0.0182972 2.89549 0)
(-0.0158183 2.98804 -7.41949e-19)
(-0.0132731 2.92537 2.57747e-19)
(-0.0254117 1.81357 0)
(-0.0207853 1.81168 0)
(0.00149612 1.60936 -5.14035e-24)
(0.00141091 1.58471 0)
(-0.00600637 1.46356 0)
(0.935839 -0.00726768 0)
(0.852593 -0.0106895 0)
(0.860554 0.00861991 0)
(0.948471 -0.00751234 0)
(0.883284 -0.00782409 0)
(0.533689 1.15908 1.4258e-20)
(0.586818 1.20277 0)
(0.385029 0.906343 1.6073e-21)
(0.326041 0.764759 0)
(0.941391 1.10377 -1.15842e-19)
(1.05162 0.906207 2.39338e-19)
(0.384785 1.42046 0)
(0.548793 1.39946 0)
(0.545037 1.35422 0)
(0.108474 0.162959 -4.96496e-20)
(0.49639 0.267151 0)
(0.482243 0.166694 4.21738e-20)
(1.02535 0.956997 0)
(1.09523 0.803362 0)
(1.11811 0.746703 -2.11709e-19)
(1.14355 0.64098 0)
(1.19167 0.420921 2.52513e-20)
(0.957065 -0.00888474 0)
(0.962064 -0.0103865 0)
(0.901403 -0.00756913 0)
(0.984392 -0.00914296 0)
(0.974705 -0.00935831 0)
(0.937324 -0.00588865 0)
(1.00015 0.00213706 0)
(1.00087 0.00132432 0)
(0.99989 0.000911501 0)
(-0.00793905 2.01693 7.33121e-20)
(0.101197 1.69626 0)
(-0.0638424 2.01601 7.19911e-20)
(-0.0196263 1.80521 -2.23237e-20)
(0.133055 1.21651 -2.24682e-19)
(0.070178 1.0554 0)
(0.0946875 1.05852 0)
(-0.00846371 0.841473 0)
(-0.0281448 0.761666 0)
(0.0550651 1.70185 4.63176e-22)
(-0.0470906 1.54283 0)
(0.0602847 1.69861 2.90953e-20)
(0.00305681 1.50031 -4.27226e-20)
(-0.0485997 0.900223 0)
(-0.0684751 1.03127 0)
(-0.0515158 0.851693 0)
(-0.0225836 1.39086 0)
(-0.0128909 1.25832 0)
(0.936622 0.0162084 0)
(0.869685 3.40402e-05 0)
(0.917658 0.00806689 0)
(0.835247 -0.00442267 0)
(0.803115 0.00502645 0)
(0.898172 0.0134883 0)
(0.879889 0.00962026 0)
(0.783248 0.00211785 0)
(0.00427684 3.0643 -2.30524e-21)
(0.0167637 3.0579 0)
(0.015385 2.96907 0)
(0.00882383 2.87626 0)
(0.967363 4.00007 0)
(1.31291 3.26068 4.93473e-19)
(0.0701973 3.08252 0)
(-0.0247619 2.91155 0)
(-0.0246467 1.80277 0)
(-0.0257871 1.81377 0)
(-0.0231858 1.80646 0)
(-0.0089107 1.82942 2.06315e-21)
(-0.0175121 1.82859 0)
(-0.0143204 1.82575 0)
(-0.00157841 1.4819 -5.32407e-21)
(0.00600401 1.6666 -1.02896e-21)
(0.00191165 1.63612 3.07757e-21)
(-0.00662325 1.47003 0)
(0.628832 0.12796 1.0676e-19)
(0.557887 0.0329009 -1.03815e-19)
(0.273605 1.50339 0)
(0.225076 0.635947 -7.90808e-20)
(0.202431 1.61419 -2.68453e-19)
(0.211473 1.15053 2.69106e-19)
(0.902438 0.00631417 0)
(0.9676 0.0104784 0)
(0.974576 0.0105902 0)
(0.923946 0.00607569 0)
(-0.0165426 1.44548 0)
(-0.012899 1.47436 0)
(-0.00588217 1.28893 0)
(0.389596 0.301049 1.448e-19)
(0.329755 0.282001 -1.77314e-19)
(0.329171 0.221506 0)
(1.11873 0.0850288 -2.33651e-21)
(1.10124 0.038358 0)
(1.0297 0.0376743 0)
(0.93516 0.00482812 0)
(0.653624 0.0956915 0)
(0.682873 0.0691465 -4.50446e-19)
(0.574777 0.0141557 1.72528e-19)
(0.00958111 2.98245 1.57434e-19)
(-0.0321681 2.86861 1.98955e-20)
(0.00202699 3.04956 -4.99985e-21)
(0.0206685 3.04335 1.86705e-19)
(-0.015404 2.99627 8.58847e-21)
(-0.0128071 2.94947 -3.48915e-23)
(-0.0175501 3.01154 -1.62682e-19)
(0.0141565 3.02323 1.16998e-19)
(0.00662364 3.03659 -1.863e-19)
(0.920563 0.00147049 0)
(0.930867 -0.00196388 0)
(0.835341 -0.00789985 0)
(0.956841 0.011682 0)
(0.943532 0.0132375 0)
(0.881175 0.00678058 0)
(0.915307 0.0145647 0)
(0.926097 0.0155638 0)
(0.833106 0.00768456 0)
(0.75528 1.43362 1.56477e-19)
(0.800816 1.52811 0)
(0.256403 0.413695 1.13687e-20)
(0.19908 0.620468 8.91229e-20)
(0.2971 0.72971 -4.97606e-20)
(0.253453 0.610741 8.93252e-20)
(0.284415 0.706656 2.79173e-19)
(0.107616 0.192831 7.86251e-20)
(0.557727 0.222575 1.58778e-19)
(0.525136 0.244892 3.90858e-20)
(0.505243 0.149414 8.04525e-20)
(1.18241 0.475992 1.26142e-19)
(1.19662 0.271869 1.32811e-19)
(-0.0184292 1.98355 2.33189e-21)
(-0.0304304 1.7599 0)
(0.981891 0.0283779 0)
(0.950189 0.0181213 0)
(0.896271 -0.00279164 0)
(0.0108008 3.07446 0)
(0.0205571 2.94391 3.14022e-19)
(0.0172543 2.95627 0)
(0.00652147 2.85085 -3.12972e-19)
(0.00548255 3.09103 7.20219e-20)
(0.0061978 3.08226 0)
(0.887786 1.83481 -1.05665e-19)
(1.27705 2.3918 2.38876e-19)
(0.868521 1.94074 -5.96457e-19)
(0.020901 2.98417 -1.12082e-19)
(0.0372841 3.00747 0)
(-0.0315647 2.88262 0)
(0.047954 1.6759 5.26126e-21)
(0.0220604 1.69553 1.53917e-20)
(0.0207158 1.49457 -5.46787e-22)
(0.271558 1.32606 2.58144e-19)
(0.201258 0.434486 -1.76275e-19)
(0.0260083 1.93897 1.81572e-19)
(0.142403 1.8272 -2.33085e-19)
(0.171687 1.44795 3.74959e-20)
(0.00162048 3.11821 -4.17397e-19)
(0.0171449 3.11735 4.69187e-19)
(-0.00934553 2.98109 1.98917e-19)
(-0.00318219 2.97819 -1.73689e-19)
(-0.0214605 2.88276 -2.027e-19)
(0.00776353 3.09895 -5.26771e-19)
(0.00151389 3.10613 5.26968e-19)
(0.223427 0.625097 0)
(0.170762 0.619224 -1.75118e-19)
(0.154398 0.254908 7.80358e-20)
(0.31521 0.819932 2.39152e-19)
(0.160228 0.226043 -3.66647e-19)
(1.19875 0.175226 -2.54788e-20)
(1.19729 0.319071 0)
(1.18486 0.126463 5.31967e-20)
(-0.00858634 1.78789 7.75669e-22)
(-0.0498011 1.89521 0)
(-0.0507372 1.65243 0)
(0.329998 1.19296 -9.43852e-20)
(0.351087 1.01229 -1.99427e-19)
(0.17579 0.312176 3.40488e-19)
(1.00543 -0.0114702 0)
(1.00745 -0.00754979 7.20168e-20)
(-0.0259144 1.79942 0)
(-0.0352887 1.80532 0)
(1.00202 0.00335245 7.60449e-22)
(1.00356 0.00983511 1.47152e-19)
(-0.00803712 1.83511 -2.79447e-21)
(-0.00350995 1.83404 0)
(0.0387851 3.18335 3.66426e-20)
(0.392036 3.49318 0)
(1.12942 0.63587 2.92744e-20)
(1.01333 0.01309 -8.05106e-22)
(1.02086 -0.0111062 0)
(1.00172 -7.28623e-05 -1.09599e-23)
(0.169264 1.18091 0)
(0.180931 2.6019 0)
(-0.219524 1.38218 0)
(-0.198449 2.3815 -3.31998e-20)
(-0.0947858 2.05211 2.39628e-20)
(1.00595 0.00864239 1.16997e-21)
(1.04902 0.0127462 0)
(1.07311 0.0305452 0)
(-0.0261137 1.81725 0)
(-0.0213034 1.86944 0)
(-0.0303955 1.77062 0)
(0.300213 1.44358 -1.87673e-19)
(1.01103 -0.00996871 0)
(1.00937 -0.0157246 0)
(1.00235 0.000331532 9.09465e-20)
(1.00537 -0.00485431 -1.08598e-19)
(1.00124 -0.00114253 0)
(-0.0313767 1.80919 0)
(-0.0272069 1.79792 0)
(-0.0280127 1.80366 0)
(-0.028889 1.77209 0)
(-0.0275587 1.7777 0)
(-0.0286471 1.77637 0)
(1.03232 -0.0148328 0)
(1.02248 0.0199978 -4.4331e-22)
(0.794657 1.25492 2.13239e-19)
(1.0024 0.000157102 -9.10736e-20)
(1.00385 0.00534926 1.09349e-19)
(1.00122 0.002163 0)
(1.01358 0.0102858 8.80275e-20)
(1.00872 0.00867183 -1.09962e-19)
(1.00919 0.0156503 0)
(-0.0190906 1.86804 0)
(-0.00914521 1.84982 2.78772e-21)
(-0.00799141 1.84938 -1.57083e-21)
(1.18959 0.24551 -4.48689e-20)
(1.12759 0.0852155 0)
(0.0547218 3.07633 -2.03045e-19)
(0.0686614 2.84899 -1.63288e-20)
(0.149551 3.19784 3.25957e-19)
(0.144359 3.22775 7.19637e-21)
(0.136804 3.24194 0)
(0.0215962 3.13816 4.34018e-20)
(0.0812016 3.1627 1.95159e-19)
(0.0732472 3.18921 -8.53056e-20)
(0.0259493 3.12874 0)
(0.674288 0.321596 0)
(0.611689 0.36204 0)
(1.08118 0.656256 -1.10588e-19)
(1.10828 0.799066 1.6898e-19)
(1.14689 0.544916 0)
(1.19252 0.492502 0)
(1.01631 0.0134888 -1.64309e-19)
(1.01459 0.01498 2.04963e-19)
(1.02495 -0.0107237 0)
(1.02304 -0.0123407 0)
(1.00669 0.00288797 0)
(1.0101 0.00326272 0)
(1.00501 0.00158933 0)
(1.00975 0.00575113 0)
(1.00832 0.00673154 0)
(1.00428 0.0043372 0)
(0.201982 1.17827 0)
(0.104396 0.984597 0)
(0.229324 1.26597 0)
(0.146536 1.28507 0)
(0.164507 2.61248 0)
(0.202446 2.63695 -8.50105e-20)
(0.0797212 2.68662 0)
(0.0822423 2.67339 -1.21291e-20)
(-0.16394 2.68139 7.18159e-20)
(-0.184336 1.4205 0)
(-0.148876 1.47412 0)
(-0.240627 1.32516 0)
(-0.188623 1.18301 0)
(-0.428622 2.12709 5.43038e-20)
(-0.154345 2.15334 2.28501e-21)
(-0.186236 2.3662 -2.16439e-20)
(-0.105918 2.24249 0)
(-0.0891546 2.04992 -4.14174e-20)
(-0.05692 2.0065 -7.67964e-21)
(-0.446783 2.10413 -5.39601e-20)
(-0.273887 2.10087 -2.92035e-21)
(-0.284491 2.25125 2.72838e-20)
(1.01663 0.0213316 1.60649e-19)
(1.0126 0.00607442 -1.97004e-19)
(1.00791 0.0197089 -1.67754e-19)
(0.992199 0.0118151 2.15368e-19)
(1.04907 0.0128282 0)
(1.03594 -0.00781361 0)
(1.06993 0.0399514 0)
(1.05516 0.0218889 0)
(1.05393 0.0153161 0)
(1.10637 0.078288 0)
(1.08259 0.0473486 0)
(1.08776 0.0378488 0)
(-0.016359 1.8397 -5.99573e-22)
(-0.0263064 1.83171 0)
(-0.0206296 1.83068 0)
(-0.035484 1.89373 4.29615e-21)
(-0.0299002 1.90171 -1.15844e-22)
(-0.0456934 1.81821 3.7747e-21)
(-0.0359867 1.81195 -3.7988e-21)
(-0.0395587 1.78854 0)
(-0.0348722 1.79746 0)
(-0.0344124 1.79777 0)
(-0.0440032 1.75655 0)
(-0.0311214 1.71776 0)
(0.392761 1.46604 3.61029e-19)
(0.430253 1.479 1.40732e-19)
(0.58911 2.41713 -6.18541e-20)
(0.402409 2.50862 1.75861e-19)
(0.335447 2.09012 -1.82053e-20)
(1.02069 -0.00859493 0)
(1.01511 -0.00996474 0)
(1.01481 -0.0163128 0)
(1.00722 -0.00126177 0)
(1.00469 -0.00164983 0)
(1.00753 -0.00464635 0)
(1.00915 -0.00392391 0)
(1.01363 -0.00447874 0)
(1.02442 0.0179421 1.57209e-19)
(1.01868 0.017552 -1.98525e-19)
(1.02524 0.0230051 -1.55013e-19)
(1.0201 0.0233147 1.94168e-19)
(0.76614 1.30338 0)
(0.70157 1.36371 2.60511e-19)
(0.862162 1.20538 1.52752e-19)
(0.917874 1.1472 -2.03089e-19)
(1.14464 2.61068 -2.56661e-19)
(0.83718 0.104013 1.09006e-19)
(1.11932 0.105145 0)
(1.1761 0.182062 3.95667e-20)
(1.1673 0.152154 1.68995e-21)
(0.978758 0.122471 0)
(0.168503 2.96363 2.58648e-20)
(0.127027 2.87088 -2.79532e-19)
(0.0417264 2.36415 1.88135e-19)
(0.105477 0.116615 -7.2971e-20)
(0.339199 3.43303 -1.88205e-19)
(0.197848 3.32601 0)
(0.230743 3.36584 2.44932e-19)
(0.263522 3.04444 -2.47048e-19)
(0.366492 3.20601 0)
(0.00603874 3.12052 1.04426e-20)
(0.0164244 3.1293 -1.38013e-19)
(0.0147092 3.12508 2.02408e-19)
(0.0374979 3.14041 0)
(0.036109 3.15132 0)
(1.18746 2.65442 0)
(0.521002 0.855365 -8.5205e-20)
(1.03765 0.974062 -8.49491e-20)
(0.944112 1.05882 0)
(0.785778 0.935796 2.52675e-20)
(1.02507 0.865551 1.13462e-20)
(0.387082 0.462297 -2.10133e-19)
(0.703143 0.336417 -8.68705e-21)
(0.691985 0.274227 8.39711e-20)
(0.615875 0.412187 6.8047e-21)
(0.553214 0.387422 -2.81256e-19)
(0.679871 0.360953 0)
(0.718074 0.419594 1.38373e-19)
(0.714819 0.414443 0)
(0.646195 0.393319 0)
(0.630729 0.323633 0)
(0.759275 0.58144 4.52044e-20)
(1.18133 0.268692 2.62699e-20)
(1.18799 0.394942 0)
(1.20831 0.342066 0)
(0.765401 0.205168 1.2658e-19)
(0.817416 0.518586 -6.82936e-20)
(0.738288 0.49415 1.10291e-19)
(0.917022 0.412975 -9.96772e-20)
(1.02086 0.0142136 1.06872e-19)
(1.0181 0.0142962 -1.09931e-19)
(1.01518 0.0168413 0)
(1.0341 -0.0101664 0)
(1.02904 -0.00930029 -9.75681e-20)
(1.02641 -0.0139303 9.6645e-20)
(1.02632 0.0075602 0)
(1.0244 0.013517 0)
(1.01136 0.00404159 0)
(1.01446 0.00915287 0)
(1.01515 0.00386775 0)
(1.01365 0.00188178 0)
(0.0754569 0.980475 0)
(-0.0208798 0.945224 0)
(0.32863 1.30725 1.88162e-19)
(0.280387 1.44102 1.10957e-19)
(0.206586 1.40386 2.51872e-19)
(0.221689 1.40665 -3.99157e-19)
(0.286363 1.38314 0)
(0.293128 1.64351 1.26019e-19)
(0.324127 1.65998 0)
(0.331836 2.03766 2.62991e-20)
(0.345774 2.38917 7.74245e-20)
(0.303763 1.46981 -1.11647e-19)
(0.262654 1.39729 8.27769e-20)
(0.286409 1.3659 -6.65337e-20)
(0.263311 1.34471 1.38839e-19)
(0.19433 1.61499 0)
(0.289629 1.61387 -8.4882e-20)
(-0.137673 2.58136 8.92527e-20)
(-0.11681 2.71851 0)
(0.056273 2.57545 -1.62695e-19)
(-0.042916 2.64137 0)
(0.00753552 2.75856 1.27642e-20)
(-0.0818266 2.73087 0)
(-0.401285 1.62452 8.64062e-20)
(-0.489853 1.74464 0)
(-0.330796 1.42071 0)
(-0.344759 1.44203 -9.72496e-20)
(-0.239434 2.52298 -3.90113e-20)
(-0.177843 2.67505 -9.44031e-20)
(-0.18 2.60168 -6.23843e-22)
(-0.300972 1.94765 -5.81347e-22)
(-0.380728 1.93129 -1.67042e-20)
(-0.122458 1.54591 0)
(-0.0812047 1.57065 0)
(-0.37702 1.87481 -2.3419e-19)
(-0.339852 1.45475 -2.2547e-19)
(-0.405266 1.71394 2.83655e-19)
(-0.12489 1.81861 0)
(-0.0592375 1.85988 -1.33573e-20)
(-0.0559151 1.8844 5.0217e-21)
(-0.0676242 1.89594 -1.75872e-21)
(-0.237756 1.88568 7.02496e-22)
(-0.100846 1.95479 -2.92391e-21)
(-0.123385 1.99832 1.8055e-20)
(1.02315 0.0235697 -1.03762e-19)
(1.02123 0.0206614 1.04582e-19)
(1.01652 0.0182993 0)
(1.00395 0.0477829 1.52385e-19)
(0.993465 0.0343378 -1.80403e-19)
(0.965404 0.0209806 2.10253e-19)
(1.00305 0.0809544 -1.97846e-20)
(1.03713 -0.0142091 0)
(1.03888 -0.0060213 8.67464e-20)
(1.02997 -0.0227302 -8.67304e-20)
(1.05402 0.0438201 -4.65233e-21)
(1.05321 0.0271511 4.18675e-20)
(1.05109 0.0489891 0)
(1.04524 0.0425402 -1.57187e-20)
(1.03768 0.02562 0)
(1.03439 0.0208536 0)
(1.03023 0.0112872 0)
(1.02923 0.0160697 0)
(1.04554 0.0264472 3.27416e-20)
(1.04645 0.0190806 -7.46132e-20)
(1.04771 0.0290025 -3.29767e-20)
(1.04581 0.0287236 -3.84224e-20)
(1.0501 0.0554716 6.83578e-20)
(1.07345 0.049286 0)
(1.07901 0.0931129 0)
(-0.0517722 1.85882 -5.00343e-21)
(-0.0309498 1.83461 -5.95281e-22)
(-0.0390041 1.84096 0)
(-0.0315621 1.85749 5.06175e-21)
(-0.0194356 1.84324 1.13918e-21)
(-0.0215435 1.85032 -1.02459e-21)
(-0.0498463 1.9863 4.90429e-21)
(-0.0718276 1.91804 -7.13924e-22)
(-0.0821114 1.93446 3.74901e-21)
(-0.0404105 1.9375 -4.3961e-21)
(-0.0389625 1.94976 5.43866e-21)
(-0.0584802 1.80164 1.37236e-22)
(-0.059309 1.82016 5.70164e-21)
(0.3879 1.39204 -1.80683e-19)
(0.348365 1.3919 -1.77089e-19)
(0.650154 1.41378 -2.51402e-19)
(0.525275 1.47219 -1.36178e-19)
(0.57607 1.45054 0)
(0.578285 2.39237 5.13297e-20)
(0.646901 2.37741 9.18626e-20)
(0.413716 2.47789 3.4803e-20)
(0.407882 2.55358 -4.61474e-20)
(0.521342 2.51927 1.00106e-19)
(0.526472 2.43522 0)
(0.48903 2.46953 -1.44059e-19)
(0.25539 2.5412 2.5011e-19)
(0.357175 2.51734 -2.7836e-20)
(0.294612 2.59972 -3.84446e-19)
(0.901797 2.36382 8.405e-20)
(0.81078 2.36173 0)
(1.0108 0.000464591 3.54743e-21)
(1.01561 -0.00568783 -2.96907e-21)
(1.01752 -0.00405719 -5.26588e-20)
(1.01521 -0.000705642 5.31298e-20)
(1.01245 0.000646162 0)
(0.619979 1.24832 0)
(0.612261 1.16221 0)
(0.717746 1.06922 0)
(0.613614 1.11105 0)
(1.17389 2.62392 2.57789e-20)
(1.05595 2.35736 0)
(0.84213 2.23333 -7.55181e-22)
(0.826452 2.48244 0)
(0.914964 2.56267 1.67554e-20)
(0.9493 2.52046 -1.0921e-20)
(0.843792 0.148805 0)
(0.81459 0.148231 3.12672e-20)
(0.925344 0.122598 1.59051e-19)
(0.865991 0.12089 -6.4305e-20)
(0.855364 0.0648949 -1.93151e-19)
(1.02474 0.211191 -8.56814e-20)
(0.953393 0.282011 -6.4775e-21)
(0.897291 0.26392 1.43525e-19)
(0.967087 0.19804 1.06285e-19)
(0.935317 0.157348 -1.97607e-19)
(0.910253 0.172583 2.55803e-20)
(0.931397 0.229729 -5.0152e-20)
(0.911864 0.193795 0)
(0.966732 0.15818 9.39864e-20)
(1.00639 0.162484 0)
(1.00154 0.191829 0)
(1.06532 0.110165 2.87001e-20)
(1.03532 0.15558 -5.65271e-21)
(1.02272 0.213926 -1.46016e-20)
(1.06115 0.191498 0)
(1.02227 0.0257866 7.95374e-20)
(1.03903 0.0461544 9.26182e-20)
(1.0372 0.0320736 -7.80938e-20)
(1.03478 0.0506045 -6.2527e-20)
(1.01405 0.0528687 -1.07534e-19)
(0.974848 0.122071 0)
(0.985907 0.0763 0)
(0.970621 0.0446192 -7.58704e-20)
(0.935791 0.0569443 3.17441e-20)
(1.01936 0.0803153 8.93299e-20)
(1.03715 0.107946 -8.7831e-20)
(1.04183 0.131588 7.87609e-20)
(1.00307 0.12645 0)
(1.04507 0.0962484 0)
(1.03423 0.0766281 -3.68151e-20)
(1.03143 0.0796477 -7.11496e-20)
(0.56203 1.07815 -4.48658e-20)
(0.619586 1.43966 8.04459e-20)
(1.15572 2.76281 5.36233e-20)
(1.23498 3.08897 -3.60472e-20)
(1.24136 2.72458 2.83642e-19)
(1.27451 2.72327 -1.68737e-19)
(1.15853 2.35963 8.97645e-21)
(1.22186 2.98422 9.25697e-20)
(1.24056 2.95433 -1.04611e-19)
(1.24093 3.24595 -1.44218e-19)
(1.36495 2.98523 1.68953e-19)
(1.30771 2.90705 0)
(0.518338 0.860974 -4.2574e-21)
(0.13831 1.28487 1.57323e-19)
(0.541477 0.536959 1.41406e-19)
(0.350793 0.299779 1.47716e-19)
(0.560803 0.43449 1.58195e-19)
(0.577274 0.489252 -2.47553e-19)
(0.56231 0.525804 2.03139e-19)
(0.519423 0.464624 -8.36159e-20)
(0.467097 0.392593 1.90514e-19)
(0.768481 0.26458 -7.0861e-20)
(0.729733 0.298421 0)
(0.718595 0.248526 4.01779e-21)
(0.729451 0.508347 7.07116e-20)
(0.709296 0.466475 -2.62376e-19)
(0.623421 0.49477 6.68554e-21)
(0.644775 0.463288 0)
(0.630326 0.738077 5.61611e-20)
(0.789565 0.757828 9.87297e-21)
(0.709658 0.844367 -1.54746e-20)
(0.829147 0.786269 -2.38797e-21)
(0.861719 0.820784 6.99025e-21)
(0.868495 0.824172 -7.1816e-21)
(0.807935 0.612151 -7.77276e-20)
(0.873892 0.687762 2.2259e-21)
(0.933103 0.694832 0)
(0.914965 0.662146 -3.00475e-21)
(0.982873 0.297572 2.08277e-20)
(1.07138 0.268514 -1.97736e-21)
(1.01051 0.245367 3.45939e-20)
(0.971484 0.349365 -5.01402e-20)
(1.01413 0.404008 0)
(1.04669 0.387354 0)
(0.889691 0.35005 2.87544e-21)
(0.823133 0.291468 0)
(0.847909 0.278243 7.49301e-20)
(0.884723 0.275425 -3.63312e-21)
(0.907284 0.412997 2.7189e-19)
(0.864478 0.46611 6.97514e-20)
(0.873177 0.436204 -9.27688e-20)
(0.803947 0.418631 9.94881e-20)
(0.792608 0.420962 6.90666e-20)
(0.760121 0.409558 -6.72757e-20)
(1.02774 -0.00326851 8.42974e-20)
(1.01972 -0.000834334 0)
(1.01829 -9.5641e-05 5.65779e-20)
(1.02134 -0.00158737 -1.26705e-19)
(1.02148 0.00349435 6.13916e-20)
(1.02094 0.0101356 -1.29507e-19)
(1.02226 0.00931424 0)
(1.02132 0.00987023 -2.71928e-20)
(1.01673 0.00716461 6.80982e-20)
(1.01726 0.0101962 -3.46591e-20)
(1.01785 0.00924061 2.53683e-20)
(-0.210951 1.17095 0)
(-0.311017 1.36683 0)
(-0.11133 1.04818 0)
(-0.111951 0.994976 0)
(0.200664 1.32083 -4.93843e-19)
(0.268393 1.21751 1.69412e-19)
(0.312038 1.63301 1.01646e-19)
(0.317571 1.29242 -8.30884e-20)
(-0.237334 1.4746 3.26644e-19)
(-0.185791 1.48666 -2.45795e-19)
(0.0761779 1.21162 1.54464e-20)
(0.00198607 1.18159 2.97136e-19)
(-0.109315 1.1838 3.87054e-20)
(-0.232234 1.28438 3.52646e-20)
(0.134731 2.53912 1.75099e-19)
(0.123117 2.53442 0)
(0.249799 2.17549 -1.76424e-20)
(0.25493 1.81085 -5.90015e-20)
(0.270224 2.09641 1.24705e-20)
(0.243993 2.44481 0)
(0.276899 2.40955 -4.12888e-20)
(0.313572 2.41239 2.92223e-20)
(0.251827 2.03104 3.58211e-20)
(0.216759 2.23795 6.07727e-21)
(0.188996 2.37713 0)
(-0.384745 2.27031 2.56312e-19)
(-0.355479 2.4447 1.34619e-19)
(-0.432565 2.29357 0)
(-0.264845 2.58499 -2.44956e-21)
(-0.232837 2.54163 -1.24186e-19)
(-0.315983 1.597 -4.997e-21)
(-0.215232 1.63033 8.03686e-20)
(-0.218934 1.69369 -2.16793e-20)
(-0.333548 1.68573 -2.86331e-20)
(-0.385215 1.6264 0)
(-0.18812 1.69505 0)
(-0.0647101 1.7094 3.69161e-22)
(-0.104162 1.7412 1.3667e-22)
(-0.133732 1.71203 0)
(-0.0855026 1.63813 -7.74684e-22)
(-0.0448411 1.65061 2.09081e-22)
(1.03608 -0.00129073 0)
(1.04341 0.000163712 -8.15101e-21)
(1.04769 0.0151808 -5.88293e-20)
(1.049 0.0152731 0)
(1.04985 0.0149429 0)
(1.04429 0.00437871 -2.79774e-21)
(1.0381 0.00349484 9.8764e-20)
(1.04069 0.0120201 1.20294e-19)
(1.03084 0.0182705 0)
(1.03056 0.0175535 0)
(1.04371 0.0198416 5.98639e-20)
(1.03481 0.017378 0)
(1.03376 0.016594 0)
(-0.108065 1.8602 0)
(-0.0784381 1.81764 7.87512e-22)
(-0.0881766 1.85172 3.20816e-21)
(-0.0794965 1.74809 0)
(-0.0972005 1.80262 7.03611e-22)
(-0.0743828 1.78813 -2.27567e-21)
(-0.069673 1.77878 0)
(0.385102 1.70153 0)
(0.355476 1.31376 2.78895e-19)
(0.288152 1.37371 0)
(0.434415 1.27056 -3.5854e-19)
(0.478932 1.42964 0)
(0.439971 1.37877 1.69901e-19)
(1.01502 2.69769 -1.57031e-21)
(0.936183 2.40155 -1.03126e-19)
(0.859303 2.13647 1.47353e-19)
(0.832313 2.35457 5.04196e-20)
(0.840677 2.5229 0)
(0.897096 2.51046 0)
(0.865599 2.36717 0)
(0.892541 2.31366 -1.75815e-19)
(0.688981 2.50245 1.96725e-21)
(0.8094 2.49387 -3.07922e-21)
(0.814989 2.46408 2.4379e-21)
(0.673102 2.35934 0)
(0.776954 2.3611 0)
(0.737512 2.36587 -9.02536e-20)
(0.766634 2.51198 0)
(0.578789 1.08716 0)
(0.478197 0.924399 1.75238e-20)
(0.532637 0.946122 2.36841e-22)
(0.504238 1.04606 0)
(0.512441 1.00658 -2.58308e-20)
(0.730887 0.873586 9.93385e-21)
(0.752643 0.994216 0)
(0.723724 0.942572 -3.13328e-20)
(0.60217 1.03004 0)
(0.611049 0.930984 0)
(1.15493 2.7742 2.79909e-20)
(1.13294 2.84083 5.51185e-20)
(0.930647 2.36716 -1.23165e-19)
(0.890364 2.34014 1.46639e-20)
(1.11497 2.73939 0)
(1.0647 2.70805 -1.82417e-20)
(1.07005 2.48095 -3.03975e-20)
(0.962205 2.21617 -1.31022e-20)
(0.478512 1.3719 0)
(0.473502 1.06316 3.92933e-20)
(0.53887 1.13224 0)
(0.858052 0.212718 0)
(0.819786 0.173649 0)
(0.780146 0.153746 0)
(0.847873 0.217733 -1.18381e-19)
(0.789463 0.213543 7.46732e-20)
(0.940717 0.051118 -6.58981e-20)
(0.949751 0.100546 0)
(0.923273 0.103203 2.97501e-20)
(0.889301 0.0814932 1.22379e-19)
(0.884109 0.0478645 -7.53016e-20)
(1.17599 3.38099 -4.27089e-19)
(1.227 3.29711 0)
(1.14379 3.39815 -8.08323e-19)
(0.643114 3.55616 7.12892e-19)
(0.856689 3.1155 1.55645e-19)
(0.491957 0.88582 8.22951e-20)
(0.420664 0.869771 0)
(0.342582 0.574533 -3.16223e-20)
(0.434463 0.699604 1.39468e-19)
(0.5394 0.544298 -4.28745e-20)
(0.52244 0.565581 4.88208e-20)
(0.65354 0.534111 1.03261e-19)
(0.683561 0.533429 0)
(0.628314 0.631087 0)
(0.587097 0.560881 0)
(0.930264 0.574678 -2.23821e-20)
(0.864063 0.51495 -6.68642e-20)
(0.885425 0.545242 2.94975e-20)
(0.923498 0.492806 -4.84631e-20)
(1.02002 0.471537 0)
(1.01565 0.547023 -7.86764e-22)
(0.824584 0.383655 -1.50751e-19)
(0.825937 0.37073 -1.69634e-19)
(0.78255 0.375749 1.17916e-19)
(0.77473 0.352463 -1.33967e-19)
(0.821401 0.315599 -9.99782e-20)
(0.777503 0.313734 1.23001e-19)
(1.0266 0.00336258 -6.34042e-20)
(1.02666 0.00296505 1.3062e-19)
(1.02902 -0.00342974 7.97774e-20)
(1.03124 -0.00538993 -9.64567e-20)
(1.03658 -0.00200604 0)
(1.03383 -0.000440898 -1.55735e-19)
(-0.00130121 1.95584 -6.12594e-20)
(0.006772 1.81917 0)
(0.238162 1.83581 -3.63784e-19)
(0.248152 1.83619 3.21983e-19)
(0.28644 1.67501 -1.89382e-19)
(0.215661 1.68208 0)
(-0.202656 1.87563 0)
(-0.185331 1.7647 5.6941e-22)
(-0.136373 1.76517 -5.13074e-22)
(-0.117819 1.80075 2.65502e-21)
(-0.12825 1.86885 -3.19476e-21)
(-0.148761 1.87099 2.36504e-21)
(0.485518 1.38089 1.90941e-19)
(0.498933 1.38697 -2.01736e-19)
(0.449977 1.27227 1.8294e-19)
(0.43607 1.28585 -1.15421e-20)
(0.608349 1.29435 0)
(0.542541 1.36876 2.29762e-19)
(0.551736 1.37194 -2.22502e-19)
(0.459726 1.25974 -1.77635e-19)
(0.500723 1.22078 0)
(0.541309 1.18337 0)
(0.648282 2.45726 -2.95633e-21)
(0.674036 2.48072 1.96739e-19)
(0.712576 2.49731 -1.34322e-19)
(0.618209 2.49103 -4.59399e-20)
(0.557447 2.5833 3.81828e-20)
(0.530274 2.5631 -1.1221e-19)
(0.953149 2.35379 -7.91656e-20)
(0.995436 2.3808 0)
(0.883477 2.12443 -1.061e-19)
(1.03339 2.68988 0)
(1.03174 2.67452 0)
(0.617957 2.2686 8.91177e-20)
(1.02931 3.16765 2.0101e-19)
(0.898203 3.02945 -1.54358e-19)
(0.29787 0.972592 0)
(0.350809 0.829781 -5.93435e-20)
(0.480319 0.783761 -1.95983e-20)
(0.424377 2.015 0)
(0.482577 2.79276 -1.10192e-19)
(0.445387 2.58079 0)
(0.64402 0.672935 -1.1487e-19)
(0.717845 0.661071 1.41282e-19)
(0.756448 0.599302 -1.36595e-19)
(0.647011 0.638372 -1.74881e-20)
(0.702352 0.582778 -7.06314e-20)
(1.01421 2.77848 -1.51798e-19)
(1.03914 2.84721 1.45875e-19)
(0.672981 2.1895 1.95931e-20)
(0.589138 1.73302 -2.40657e-20)
(0.711044 1.93458 6.50811e-20)
(0.99174 2.48493 -2.25538e-20)
(0.991861 2.4855 -9.76161e-20)
(0.685694 1.91331 -4.52175e-21)
(0.460515 1.35686 -3.80896e-20)
)
;

boundaryField
{
    wall-4
    {
        type            noSlip;
    }
    velocity-inlet-5
    {
        type            fixedValue;
        value           uniform (1 0 0);
    }
    velocity-inlet-6
    {
        type            fixedValue;
        value           uniform (0 3 0);
    }
    pressure-outlet-7
    {
        type            zeroGradient;
    }
    wall-8
    {
        type            noSlip;
    }
    frontAndBackPlanes
    {
        type            empty;
    }
}


// ************************************************************************* //
