/*--------------------------------*- C++ -*----------------------------------*\
| =========                 |                                                 |
| \\      /  F ield         | OpenFOAM: The Open Source CFD Toolbox           |
|  \\    /   O peration     | Version:  4.0                                   |
|   \\  /    A nd           | Web:      www.OpenFOAM.org                      |
|    \\/     M anipulation  |                                                 |
\*---------------------------------------------------------------------------*/
FoamFile
{
    version     2.0;
    format      ascii;
    class       volScalarField;
    location    "46";
    object      p;
}
// * * * * * * * * * * * * * * * * * * * * * * * * * * * * * * * * * * * * * //

dimensions      [0 2 -2 0 0 0 0];

internalField   nonuniform List<scalar> 
918
(
0.564036
1.20915
0.00218756
0.563416
-0.0116173
1.1762
-0.492338
0.71035
0.544196
-0.0895775
-0.0207777
0.540817
1.03667
0.802813
-1.11546
-0.00349716
0.664646
-0.371263
0.543255
-0.0342104
0.74392
0.550771
0.5538
0.544384
0.609993
0.781344
0.917477
0.0185055
0.00554374
0.00215455
-0.0112179
-0.0375959
-0.0300207
1.05985
1.11093
1.13361
0.512308
0.340764
-0.359107
-0.426176
-0.418669
-0.53591
0.704613
0.703699
-0.182502
0.713199
0.719087
0.531332
0.543561
0.54447
0.54553
0.54449
0.545882
0.420466
-0.0920919
-0.124568
-0.0687672
-0.0607338
0.0737727
-0.0221865
-0.0242981
-0.0200254
-0.0195033
0.462422
0.536175
0.533248
0.546058
0.555222
1.1487
1.12062
1.14677
1.06037
1.07692
1.01467
0.9873
0.823466
0.84501
0.787694
0.776494
-1.55175
-2.51141
-0.521175
-0.268179
-0.0103119
0.00347676
0.0130769
0.658413
0.658006
0.666519
0.675111
1.0918
-0.369983
-0.47431
0.543386
0.542186
0.550557
0.551253
0.547268
0.54636
-0.0310291
-0.0285882
-0.0304802
-0.0336763
-0.0321322
0.732947
0.730831
0.544921
0.541935
0.561921
0.582871
0.574654
0.290042
0.613256
0.626737
0.607691
0.773375
0.766557
0.775765
0.890973
0.854315
0.954804
0.97796
0.0157992
0.00118893
-0.0115909
-0.016115
-0.0150779
0.508204
0.500855
0.527519
0.515689
0.51815
0.256547
0.121737
0.426457
0.451626
-0.274145
-0.334799
-0.420477
-0.446292
-0.557671
0.613431
0.695299
0.692999
-0.198381
-0.124699
-0.254394
-0.051323
-0.112241
0.521682
0.528631
0.523666
0.539125
0.533612
0.535566
0.547817
0.544896
0.546451
0.482858
0.606489
0.347052
0.312846
-0.23126
-0.142666
-0.233458
-0.0480376
-0.0424201
0.0875655
0.113106
0.0609474
0.0497854
-0.0361161
-0.0285277
-0.0326788
-0.0187253
-0.0232534
0.455318
0.444382
0.474928
0.482338
0.52583
0.52706
0.530572
0.528946
0.938132
0.960376
0.967983
0.941866
-3.50978
-6.30808
0.0598589
0.197779
-0.00582931
-0.0087793
0.00186778
-0.00452009
0.00137825
-0.00122219
0.011351
0.0079281
0.0127863
0.0142565
0.649174
0.649252
1.01128
1.01355
0.990871
0.94194
0.531515
0.533617
0.539151
0.535016
-0.023057
-0.0269346
-0.0256987
0.720875
0.727398
0.725397
0.252453
0.164658
0.340014
0.368389
0.64161
0.630106
0.63995
0.667867
0.704254
0.985337
1.00358
1.00186
1.01032
1.05443
1.0709
1.03613
0.488025
0.497801
0.492865
0.530689
0.528419
0.529342
0.524931
0.526378
0.524218
-0.0299246
-0.412839
0.501054
0.519374
0.500868
0.50624
0.692832
0.769998
0.676743
0.685874
0.683695
0.0159393
-0.0417416
0.269036
0.235354
0.396071
0.431807
0.411124
0.909178
0.869852
0.91985
0.893185
0.854696
0.880159
-0.364412
-1.87418
-0.987765
0.550267
0.362902
0.450535
0.0319638
0.013522
0.0199988
1.00649
1.0829
0.662333
0.832536
0.838537
0.742694
0.772985
0.827353
0.7536
0.787807
0.82241
0.803955
0.570434
0.513642
0.525265
0.839683
0.896148
0.136513
0.078277
0.0340971
0.131977
0.188463
0.163192
1.04465
0.951762
1.02353
0.541687
0.542392
0.0023984
-0.00562562
0.546579
0.546628
-0.00878571
0.00186331
0.434069
-0.824442
0.119872
0.535092
0.525207
0.542208
-0.0718644
0.374602
-0.0216847
0.0710033
0.0114594
0.538494
0.473219
0.43319
0.00578131
-0.0115876
-0.0284701
-0.201385
0.539359
0.537666
0.541678
0.542645
0.543311
-0.0120857
-0.00593018
-0.00606517
-0.0290024
-0.0260809
-0.0334213
0.50653
0.524638
-0.156696
0.541821
0.543944
0.54377
0.536977
0.542631
0.540864
-0.00398815
-0.0104709
-0.0142785
0.235451
0.362238
0.67783
0.768364
0.647701
0.421136
0.183735
0.578672
0.643419
0.547337
0.703199
0.690751
0.707267
0.185255
0.0354726
0.193418
0.135281
0.53295
0.531638
0.523463
0.520487
0.537076
0.535185
0.539742
0.536735
0.539684
0.541078
-0.030322
-0.0546612
-0.0678295
-0.134048
0.330476
0.591073
0.271276
0.301592
0.162109
-0.0176281
-0.0170929
-0.0205584
-0.027376
0.023543
-0.00351625
0.0648429
0.0650557
0.0343819
0.00769808
0.0153477
0.00226926
0.00713132
0.531704
0.530096
0.536449
0.54541
0.482657
0.486401
0.451932
0.472315
0.457774
0.397999
0.432422
0.407921
0.00178264
0.0101297
0.00320153
-0.00631285
-0.00136798
-0.0200151
-0.016909
-0.017333
-0.0119279
-0.0166967
-0.0234725
-0.0264963
-0.161097
-0.275417
0.997475
0.92755
0.13852
0.528542
0.534969
0.531748
0.536591
0.539715
0.54055
0.538286
0.534848
0.525099
0.526754
0.523368
0.52408
-0.0911706
-0.228312
-0.0579012
-0.129284
0.150667
0.632538
0.374035
0.311843
0.306375
0.532254
0.939814
0.729548
0.710484
0.728128
-0.330695
0.0640149
-0.264792
0.354862
0.177519
0.675347
0.725478
0.748281
0.695269
0.647518
-0.0993216
0.564258
-0.0538462
-0.00433601
0.194897
0.0772948
0.710302
0.674355
0.678439
0.696788
0.714682
0.680733
0.663736
0.658321
0.692415
0.696082
0.505665
0.266643
0.219632
0.181016
0.657665
0.542713
0.597818
0.510489
0.52802
0.530721
0.529323
0.511276
0.518764
0.51436
0.52057
0.523927
0.532792
0.53319
0.528542
0.530702
-0.0349124
-0.037816
-0.0129266
-0.122867
-0.1131
-0.173657
-0.0494096
0.0893279
0.0525971
0.24671
0.352624
0.0650834
-0.0479661
-0.0194001
0.0170698
0.191099
0.216735
0.094619
0.181803
0.170699
0.154432
0.255684
0.260645
-0.00426745
-0.00832338
-0.0103747
-0.0129811
0.0414698
0.111675
0.121783
0.0158638
0.0111526
-0.0130791
-0.0146791
-0.000570484
-0.00566461
-0.00221005
0.0337426
-0.0408927
-0.00764544
0.00744858
0.0175942
0.0145162
0.00954965
0.524196
0.526421
0.52609
0.533718
0.551689
0.567792
0.52482
0.504536
0.495464
0.498449
0.471893
0.482057
0.477894
0.491304
0.51202
0.521187
0.518734
0.521428
0.504178
0.505836
0.492749
0.496353
0.471773
0.452881
0.44136
-0.0318717
0.00602495
-0.00038555
-0.0294014
0.000932487
-0.012093
0.00632519
0.022757
0.00911033
0.00506923
-0.00388908
-0.0144078
-0.0120786
-0.0647625
0.0191121
-0.173499
-0.209525
-0.279198
0.900098
1.02197
0.822876
0.597307
0.612607
0.854301
0.940682
0.56
0.746986
0.771085
0.588269
0.854735
0.533352
0.532965
0.530563
0.530041
0.531263
-0.000603855
0.102133
0.107568
0.165536
0.282248
0.395502
0.318642
0.19426
0.326624
0.330365
0.625451
0.638819
0.593883
0.617094
0.617661
0.437481
0.513416
0.566493
0.522843
0.573047
0.593973
0.551101
0.582714
0.53276
0.488037
0.484534
0.433945
0.454717
0.431546
0.413533
0.523304
0.500774
0.511256
0.501471
0.521053
0.545279
0.542043
0.574392
0.585409
0.505603
0.462053
0.471816
0.501881
0.462287
0.476981
0.493017
0.234284
0.134339
0.218897
-0.069806
0.00740193
-0.00712109
-0.0545193
-0.00701222
0.278302
-0.416688
-0.391665
-1.02286
0.505521
0.970086
0.66142
0.634755
0.711653
0.69258
0.697582
0.717339
0.721689
0.648227
0.66508
0.668123
0.630047
0.653229
0.675285
0.672221
0.534285
0.400934
0.396082
0.348869
0.220195
0.257121
0.458333
0.38029
0.305312
0.3067
0.471696
0.358397
0.427421
0.464474
0.395877
0.349763
0.554467
0.619293
0.609733
0.584396
0.501986
0.51634
0.540505
0.57619
0.602571
0.633886
0.52021
0.526027
0.52728
0.524795
0.522018
0.524998
0.525158
0.527689
0.528442
0.531389
0.530407
-0.0225086
-0.0110357
-0.0246235
-0.0315616
-0.00150747
-0.00595382
0.0380638
0.0241888
0.00939863
0.0158159
-0.0110042
-0.015408
-0.010087
-0.000806332
0.115777
0.12876
0.112501
0.0730714
0.260274
0.391047
0.462395
0.339896
0.233065
0.256958
0.279058
0.0089143
0.0357525
0.0226705
0.0620083
0.053771
-0.0114025
-0.0157857
-0.0146547
-0.00781847
0.00302666
-0.0162957
-0.0226288
-0.0123061
-0.0170918
-0.0193503
-0.0247823
0.506747
0.500301
0.501839
0.495855
0.494591
0.508639
0.512874
0.514791
0.520157
0.52229
0.512652
0.518208
0.52188
0.00494414
-0.0199972
-0.0236327
-0.00817908
-0.0146504
-0.0137707
-0.0126914
0.127535
0.0566976
0.0611595
0.0157987
-0.112852
-0.0552114
0.493511
0.49258
0.487365
0.723156
0.573305
0.492925
0.589436
0.694641
0.278263
0.477094
0.310233
0.893713
0.78733
0.933863
0.547649
0.247485
0.406476
0.455905
0.263771
0.336581
0.336241
0.223184
0.255609
0.289516
0.391411
0.26931
0.244544
0.00179865
0.190162
0.306041
0.287091
0.415195
0.477562
0.266031
0.187299
0.141693
0.615604
0.633283
0.648934
0.622754
0.64444
0.583749
0.571958
0.590168
0.600035
0.595692
-0.750202
-0.457046
-1.40207
-0.718134
-0.266044
0.536652
0.501597
0.776862
0.658402
0.715623
0.699811
0.65666
0.623656
0.64058
0.669668
0.362856
0.4746
0.449256
0.454286
0.355242
0.286768
0.588644
0.582726
0.617843
0.641276
0.609943
0.64147
0.517967
0.517636
0.517213
0.513526
0.511811
0.514094
0.0769331
0.0461978
0.0806425
0.061573
0.0390665
0.0276843
0.0127858
0.00323328
-0.00554716
-0.00677784
0.00805144
0.0135014
0.171155
0.111576
0.0333491
0.0626597
0.00316076
-0.0640532
-0.0818457
0.0191108
0.113129
0.10354
0.409707
0.661611
0.481802
0.649976
0.490153
0.545893
0.477372
0.469875
0.496659
0.384466
0.4638
0.241675
-0.265444
-0.173368
0.793611
0.809311
0.592045
0.410205
0.179016
0.363811
0.556809
0.49006
0.527978
0.597443
0.587502
0.022857
0.0859882
0.356943
0.58425
0.24066
0.232461
0.226548
0.40477
0.326195
)
;

boundaryField
{
    wall-4
    {
        type            zeroGradient;
    }
    velocity-inlet-5
    {
        type            zeroGradient;
    }
    velocity-inlet-6
    {
        type            zeroGradient;
    }
    pressure-outlet-7
    {
        type            fixedValue;
        value           uniform 0;
    }
    wall-8
    {
        type            zeroGradient;
    }
    frontAndBackPlanes
    {
        type            empty;
    }
}


// ************************************************************************* //
