/*--------------------------------*- C++ -*----------------------------------*\
| =========                 |                                                 |
| \\      /  F ield         | OpenFOAM: The Open Source CFD Toolbox           |
|  \\    /   O peration     | Version:  4.0                                   |
|   \\  /    A nd           | Web:      www.OpenFOAM.org                      |
|    \\/     M anipulation  |                                                 |
\*---------------------------------------------------------------------------*/
FoamFile
{
    version     2.0;
    format      ascii;
    class       volScalarField;
    location    "2";
    object      p;
}
// * * * * * * * * * * * * * * * * * * * * * * * * * * * * * * * * * * * * * //

dimensions      [0 2 -2 0 0 0 0];

internalField   nonuniform List<scalar> 
918
(
0.833217
0.534613
0.0365153
0.826095
0.00308147
0.491488
-0.677447
0.565913
0.820672
-0.0735871
0.0512487
0.701306
0.366258
0.126748
-1.07486
0.0336767
0.76323
-0.785541
0.740416
0.0185132
0.308311
0.880726
0.80788
0.714859
0.724062
0.150171
0.186817
0.0186513
-0.00352152
-0.00766471
0.0214973
0.0277914
0.0274971
0.373097
0.424299
0.448184
0.698167
0.381586
-0.33356
-0.489781
-0.462733
-0.834079
0.600861
0.630164
-0.0230935
0.518287
0.47401
0.732651
0.811182
0.823313
0.805209
0.814363
0.861026
0.30601
-0.0986193
-0.146142
-0.028225
-0.020473
0.1128
0.0484044
0.0463089
0.0606547
0.0409347
0.647747
0.700274
0.692401
0.710112
0.706608
0.474877
0.430653
0.461414
0.408862
0.413988
0.356024
0.325126
0.156889
0.16856
0.0956096
0.087835
-1.24222
-1.74946
-0.756704
-0.612737
0.00850356
0.0351149
0.0591169
0.759251
0.770156
0.737397
0.738608
0.683606
-0.653914
-0.91892
0.749369
0.753437
0.845688
0.800569
0.788104
0.743969
0.0277898
0.0346533
0.0206917
0.0374715
0.023666
0.200383
0.27879
0.696279
0.74322
0.697334
0.721017
0.709848
0.477772
0.755942
0.756561
-0.0140766
0.0737517
0.123502
0.112683
0.22401
0.194721
0.30008
0.331339
-0.00188264
0.00291804
0.0403005
0.0198372
0.0310472
0.695464
0.684373
0.720461
0.698566
0.72139
0.257999
0.130944
0.433498
0.570135
-0.165897
-0.220011
-0.686022
-0.649506
-0.917374
0.788825
0.651215
0.681436
-0.0229671
0.0542795
-0.142781
0.111191
0.0272145
0.725743
0.730854
0.717356
0.736057
0.738562
0.744017
0.816907
0.817583
0.828842
0.333532
0.384084
0.293177
0.251912
-0.402215
-0.205383
-0.400489
0.0137335
0.037863
0.121013
0.13592
0.115479
0.0883849
0.0256354
0.0542767
0.0490917
0.0462559
0.0523768
0.648787
0.631692
0.657025
0.663366
0.710475
0.697957
0.698976
0.706727
0.296917
0.270089
0.287633
0.262095
-2.23262
-4.09521
-0.447702
-0.361695
0.0110037
0.0089851
0.00477156
0.00696215
-0.00030621
-0.00522403
0.0684512
0.059128
0.0517929
0.0617676
0.763388
0.776503
0.673333
0.725464
0.604496
0.627622
0.732251
0.741151
0.751928
0.745129
0.0429194
0.0304792
0.0345139
0.421411
0.297246
0.356889
0.442505
0.367468
0.524291
0.551135
0.766427
0.756774
0.779661
0.0259332
0.0444712
0.323697
0.347043
0.338037
0.326049
0.366022
0.375521
0.371524
0.660236
0.688953
0.685452
0.721413
0.721412
0.728128
0.718078
0.710745
0.708635
0.00894545
-0.243025
0.748495
0.682763
0.606808
0.681621
0.755859
0.789889
0.72492
0.688067
0.716487
0.187113
0.173887
0.219995
0.199823
0.585738
0.611776
0.596462
0.204032
0.174572
0.189019
0.187601
0.16226
0.217634
-0.282189
-0.899885
-0.558188
-0.110901
-0.271614
-0.167299
0.0664764
0.0799343
0.0665825
0.700032
0.747584
0.409427
0.543167
0.521851
0.0937494
0.0909927
0.17223
0.101909
0.105601
0.138778
0.104556
0.753914
0.73291
0.782128
0.753611
0.787607
0.343097
0.255572
0.209002
0.155699
0.172736
0.165203
0.721063
0.746485
0.771582
0.721574
0.741973
0.0038998
0.0184207
0.790389
0.812923
-0.0112473
0.000348321
-0.281377
-0.841749
0.342534
0.754146
0.748273
0.785202
-0.0530006
0.272191
0.0526949
0.129728
0.0929616
0.694441
0.661311
0.611975
0.00143654
0.0554589
0.0390311
-0.214003
0.784611
0.743336
0.796213
0.8022
0.789367
0.00964883
0.0125536
0.0218373
0.0196126
0.0261733
0.0477423
0.711936
0.707818
-0.0936072
0.784406
0.784997
0.788845
0.768187
0.780388
0.751051
0.0406219
0.0289273
0.0488498
0.450215
0.558753
-0.0468269
0.230082
-0.29054
-0.341042
-0.427409
-0.123201
-0.0361569
-0.163135
0.0897622
0.640777
0.521663
0.410936
0.252146
0.402302
0.356087
0.74444
0.750853
0.738513
0.729491
0.76044
0.733172
0.786248
0.758693
0.780088
0.799291
0.0257822
-0.000530603
-0.0302617
-0.124194
0.304781
0.387316
0.2334
0.271679
0.167386
0.0394221
0.0652564
0.0479069
0.0509257
0.0855259
0.109714
0.0986745
0.124709
0.0981716
0.0944974
0.0679135
0.0948158
0.0804045
0.677558
0.685506
0.688937
0.71973
0.669219
0.660628
0.6338
0.653288
0.657388
0.589445
0.615886
0.600133
0.0133619
0.028851
0.0226607
0.0751004
0.0467044
-0.0207607
-0.00979699
-0.0113585
0.00588718
0.00628897
0.0351177
0.0314644
-0.164767
-0.315728
0.633216
0.533163
0.27708
0.738704
0.759299
0.734614
0.767516
0.792413
0.811064
0.787538
0.765833
0.716883
0.723415
0.701174
0.716395
-0.0218628
-0.194976
-0.00849241
-0.068145
0.355286
0.742876
0.567375
0.506745
0.497274
0.650302
-0.612962
-0.446663
0.272018
0.231072
-0.629399
-0.50692
-0.643392
-0.409906
-0.224706
-0.00235094
0.0660432
0.0888869
0.0814577
-0.0252774
-0.193748
0.643804
0.156214
0.144574
0.44301
0.315996
0.0853622
0.667079
0.683726
0.482735
0.425025
0.606818
0.574756
0.589521
0.570222
0.598717
0.614637
0.460777
0.439662
0.382657
0.715226
0.617902
0.632298
0.592789
0.743729
0.750993
0.7313
0.727275
0.727076
0.710546
0.722632
0.714354
0.737952
0.74595
0.742581
0.739813
0.0192307
0.0287728
-0.0116176
-0.109489
-0.09883
-0.179205
-0.0299593
0.142285
0.0778237
0.271164
0.361302
0.127276
-0.0793152
0.0278155
0.0359027
0.218334
0.21315
0.147542
0.183678
0.182713
0.153559
0.237398
0.22379
0.0973188
0.0986773
0.065829
0.0576885
0.142057
0.13739
0.156013
0.0838837
0.0924734
0.062601
0.0578626
0.0987049
0.0989091
0.093651
0.0940109
0.0308828
0.0508282
0.0341092
0.0536702
0.103771
0.104083
0.70592
0.697238
0.69441
0.678558
0.716773
0.709485
0.650372
0.706597
0.700831
0.694303
0.654289
0.645456
0.650907
0.65269
0.674556
0.668704
0.7158
0.71084
0.670904
0.677333
0.630389
0.650417
0.63159
0.629544
0.620303
0.0085343
0.0122827
0.000887602
0.0196832
0.0237887
0.0476782
0.0709617
0.0615437
0.0720655
0.0656771
0.063498
0.00338917
0.0166115
-0.00981913
0.113825
-0.167944
-0.187549
-0.313346
0.618466
0.665923
0.532281
0.453135
0.521617
0.574853
0.600324
0.422248
0.470201
0.502397
0.713054
0.702359
0.727926
0.732397
0.748965
0.744136
0.742
0.111138
0.255646
0.282135
0.439393
0.444819
0.473399
0.476774
0.474179
0.554346
0.540977
0.735117
0.748345
0.724334
0.742078
0.754291
0.576386
0.677641
0.677041
0.71317
0.683912
0.693695
0.700161
0.692143
0.655093
0.652123
0.667268
0.61151
0.617157
0.609032
0.612753
0.667607
0.657355
0.668867
0.656373
0.675446
0.665722
0.699941
0.733833
0.716477
0.628637
0.610913
0.630161
0.652394
0.622149
0.63337
0.628331
0.486909
0.574074
0.420772
0.209504
0.272675
-0.0495859
0.00561696
0.216368
0.393804
-0.0498353
-0.283025
-0.551887
0.746572
-0.878587
-0.252968
-0.746469
0.369814
0.384502
0.279258
0.194474
0.290596
0.69961
0.699506
0.713585
0.600113
0.558337
0.45873
0.507076
0.763133
0.603511
0.619032
0.591621
0.440592
0.514175
0.621204
0.576348
0.498166
0.514168
0.631517
0.51016
0.536896
0.609016
0.536947
0.548143
0.634405
0.675678
0.684944
0.65294
0.588682
0.609789
0.612184
0.633874
0.636801
0.627905
0.724039
0.721647
0.714859
0.725254
0.72738
0.727156
0.703672
0.733622
0.741322
0.747255
0.744058
0.0531498
0.070656
0.0448134
0.0235234
0.0861741
0.0655232
0.0366093
-0.000728617
0.106895
0.105664
0.0592363
0.0385933
0.0687858
0.0705063
0.157034
0.199087
0.205085
0.157939
0.284682
0.366586
0.422526
0.36509
0.252958
0.255647
0.294477
0.105858
0.112862
0.103276
0.107006
0.111352
0.0250238
0.030469
0.0205223
0.0907742
0.0790502
0.00200327
0.0442871
0.0437883
0.0280259
0.0523943
0.0489115
0.692346
0.674627
0.648142
0.633189
0.652712
0.661544
0.689084
0.710111
0.719811
0.707023
0.699987
0.695846
0.708242
0.0354955
0.0489231
0.0483656
0.035456
0.0339214
-0.00510806
0.0173997
0.354571
0.213979
0.252536
0.146821
-0.0317093
0.0216154
0.581365
0.686055
0.713709
0.686112
0.613714
0.622375
0.681791
0.714578
0.461354
0.56581
0.502143
0.645685
0.658818
0.688946
0.595911
0.470241
0.703051
0.773677
0.482934
0.506559
0.562965
0.491745
0.534351
0.532011
0.684863
0.451695
0.452372
0.5169
0.490509
0.509604
0.549177
0.538633
0.614529
0.392598
0.403855
0.32236
0.700194
0.725928
0.740438
0.702577
0.720472
0.715402
0.706373
0.725765
0.747515
0.752269
-0.294409
-0.0779194
-0.857376
-0.669431
-0.169865
0.789173
0.672364
0.29434
0.617188
-0.0625038
0.279895
0.499718
0.565672
0.602646
0.461596
0.556079
0.586404
0.579799
0.595147
0.504944
0.47225
0.659754
0.658882
0.644924
0.65873
0.656014
0.674258
0.697077
0.724863
0.686156
0.712885
0.70785
0.719571
0.155465
0.112422
0.151124
0.134982
0.1064
0.110112
0.00568142
0.0112769
0.0538871
0.0555819
0.0519014
0.084209
0.384929
0.396635
0.20022
0.324768
0.130572
0.0305464
-0.0181321
0.123702
0.239212
0.268182
0.494798
0.590392
0.55848
0.543111
0.476403
0.543846
0.673383
0.617594
0.670274
0.587784
0.584728
0.420416
0.0562398
0.0959428
-0.237756
0.321787
0.547445
0.445136
0.124391
-0.0549901
0.683101
0.638602
0.604379
0.632794
0.614067
0.214752
0.29538
0.664294
0.872046
0.546754
0.444487
0.421442
0.60411
0.587632
)
;

boundaryField
{
    wall-4
    {
        type            zeroGradient;
    }
    velocity-inlet-5
    {
        type            zeroGradient;
    }
    velocity-inlet-6
    {
        type            zeroGradient;
    }
    pressure-outlet-7
    {
        type            fixedValue;
        value           uniform 0;
    }
    wall-8
    {
        type            zeroGradient;
    }
    frontAndBackPlanes
    {
        type            empty;
    }
}


// ************************************************************************* //
