/*--------------------------------*- C++ -*----------------------------------*\
| =========                 |                                                 |
| \\      /  F ield         | OpenFOAM: The Open Source CFD Toolbox           |
|  \\    /   O peration     | Version:  4.0                                   |
|   \\  /    A nd           | Web:      www.OpenFOAM.org                      |
|    \\/     M anipulation  |                                                 |
\*---------------------------------------------------------------------------*/
FoamFile
{
    version     2.0;
    format      ascii;
    class       surfaceScalarField;
    location    "2";
    object      phi;
}
// * * * * * * * * * * * * * * * * * * * * * * * * * * * * * * * * * * * * * //

dimensions      [0 3 -1 0 0 0 0];

internalField   nonuniform List<scalar> 
1300
(
3.75095
5.62643
-6.73678
3.75095
-6.41382
5.62643
-6.27583
6.27583
-1.59496
1.59496
1.87837
1.87258
-5.81274
5.81274
-5.61982
5.61982
-3.05986
3.05986
-5.24319
5.24319
-5.13059
5.13059
4.17468
-4.17468
-5.29989
5.29989
-2.16774
2.16774
-6.36786
6.36786
3.15905
-3.15905
-5.61951
5.61951
-1.49636
1.49636
-0.582774
4.33373
3.16818
3.16818
-2.77432
2.77432
-5.04344
5.04344
6.18751
-6.18751
9.83238
-9.83238
-3.0956
-3.27198
1.30267
-7.99744
-5.11115
-5.11115
-8.43966
8.43966
-2.81323
2.8132
3.19902
-3.19902
-2.22381
2.22381
-5.91104
-0.364785
-5.91104
6.52148
-0.245652
6.52148
-1.73653
0.141568
-1.73653
4.6984
-4.6984
1.42376
0.171197
1.42376
3.18685
-3.18685
-1.88192
3.76029
1.86904
-1.81906
6.15279
-1.93189
3.80447
-4.8859
4.8859
-5.9637
0.150959
-5.9637
5.75117
0.0615735
5.75117
-5.48595
5.48595
-5.62208
0.00225201
-5.62208
5.61876
0.00106482
5.61876
3.27243
-3.27243
-3.09813
0.0382653
-3.09813
3.07811
-0.0182435
3.07811
0.358072
5.26836
-5.9845
8.7977
-5.26836
0.0251714
5.22689
0.0162987
5.22689
-5.15741
0.0268156
-5.15741
5.11643
0.0141597
5.11643
3.92987
0.244813
3.92987
-4.52192
0.347243
-4.52192
-3.21624
-3.32152
-5.36561
0.0657192
-5.36561
-2.21704
0.0493057
-2.21704
2.10409
0.0636434
2.10409
-3.90609
3.90609
-6.57442
0.206554
-6.57442
3.12304
0.0360133
3.12304
1.83991
1.91104
5.59086
-5.59086
2.43181
-5.6223
0.00278974
-5.6223
-5.60974
-4.22264
5.60974
0.00977251
-1.28945
-0.206907
-1.28945
3.21744
-0.0492571
3.21744
2.95632
0.121787
-2.95632
0.182
3.69135
-3.69135
2.2009
0.573422
2.2009
-5.57101
5.57101
5.10131
0.0151236
-5.10131
0.057865
6.1172
0.0703174
6.1172
-6.2071
0.0195908
-6.2071
3.33067
-6.60265
-3.28394
5.20309
0.0967962
-5.20309
0.0919409
3.22889
-0.029865
3.22889
-3.15939
3.15939
-3.19398
-0.00503952
-3.19398
-1.99313
-0.230679
-1.99313
2.46512
-0.241312
2.46512
-5.44785
-0.463189
-5.44785
-6.64868
0.0742609
6.64868
-0.127201
2.99901
-2.99901
-1.86042
0.123892
-1.86042
-5.01909
-0.428764
5.01909
-0.320685
-4.40664
-0.291762
-4.40664
-3.21409
0.0201097
3.21409
-0.0272411
3.16323
0.0542048
-3.16323
-0.0236175
-1.87119
3.78224
-1.87976
3.7488
-4.77216
-0.113741
-4.77216
5.1249
-0.239001
5.1249
6.20154
0.166327
-6.20154
0.237834
5.7344
0.016773
5.7344
-5.45648
-0.0294702
-5.45648
5.5708
-0.0848539
5.5708
5.63127
0.103125
-5.63127
0.00919604
5.59936
0.0194019
5.59936
3.32919
-0.0567588
3.32919
-3.2126
-0.0598361
-3.2126
3.17415
-3.17415
3.08452
0.0896322
-3.08452
-0.01361
-11.0713
11.0908
0.000476905
-11.0717
5.22737
5.22737
3.06433
0.865541
3.06433
-4.91564
0.393715
-4.91564
3.27072
-6.55466
3.2654
-6.48164
3.32666
-11.3241
3.28524
-6.60676
5.52093
-5.52093
5.47738
0.0435571
-5.47738
0.111768
-2.19165
-0.0253877
-2.19165
-3.70277
-0.203314
-3.70277
4.21965
-0.313562
4.21965
-3.20762
3.20762
-3.15624
-0.0513808
3.15624
-0.0332003
5.65275
-0.0533919
-5.65275
0.0304478
1.31552
0.108243
-1.31552
0.02607
3.83414
-0.142797
3.83414
-3.49595
-0.195398
-3.49595
-2.19189
0.00023277
2.19189
0.00901123
-5.79327
0.222265
-5.79327
-11.1837
0.111998
-11.1674
-6.09511
-6.09511
2.34455
11.1423
-3.21153
-0.00106227
3.21153
0.0173524
3.15155
0.056067
-3.15155
-0.00783733
-3.1665
-0.00765584
3.1665
-0.00710566
-1.98606
-0.00707437
-1.98606
-2.80547
2.80547
-2.64569
-0.15978
2.64569
-0.180568
3.14942
-0.150411
3.14942
2.03433
0.0697583
-2.03434
0.173916
-4.16584
-0.240802
-4.16584
5.28669
-0.161788
5.28669
-3.3859
-0.110049
3.3859
-0.0567085
-0.014909
11.1057
-5.21246
0.0550474
5.21246
-11.1761
11.2311
-2.3319
0.345842
2.3319
0.732428
5.28045
0.29056
-5.28045
0.364808
5.55302
0.0177861
-5.55302
0.0320817
-3.61642
-0.0863528
-3.61642
-4.53343
-0.238725
4.53343
-0.31378
-11.4199
-0.176155
11.596
-11.4057
5.96943
0.14777
-5.96943
11.3789
-2.93381
-0.065199
2.93381
-0.128343
3.32053
-0.171111
3.32053
4.04567
-0.211524
-4.04567
-0.120171
-5.3397
-0.116777
5.3397
-0.0530146
-3.45197
-0.164456
3.45197
-0.131433
-4.1847
4.13545
1.96808
-3.32958
-3.27307
-7.55222
1.79404
1.98819
4.22585
-7.0483
-4.2758
-6.95636
7.10878
-6.74397
-7.97357
8.21839
7.42408
-7.71584
-5.82689
5.79369
6.31831
-6.34556
1.8346
1.92569
10.7884
-10.6375
-10.0422
9.92844
10.1261
-10.1238
10.4661
-10.4956
-12.117
12.1348
-5.622
5.66027
-6.58827
6.52843
-6.64609
6.58938
-3.32457
-3.15707
8.90604
-8.84032
11.6143
-11.6115
-11.2359
11.4424
3.29513
0.840315
3.34934
-1.96183
3.79642
-1.84265
3.81073
3.26255
-6.58711
3.29211
-6.56519
5.9519
5.66235
-5.96168
-1.59054
-5.88189
5.85202
-5.7875
5.7804
10.7732
-11.138
-1.86193
3.78762
-1.88687
3.87506
-3.3717
-2.4552
3.33568
0.890172
5.50854
3.3975
-5.60534
-1.35103
-7.57467
7.36315
-7.71011
7.51471
-0.432591
5.87045
-5.43786
4.61085
-1.79972
7.67017
5.30905
5.70277
5.79065
-5.50009
0.953318
-6.39118
-6.33331
-2.46799
2.59188
2.38533
-2.21414
6.27946
1.14461
5.95878
-5.30744
-2.4084
-5.54824
3.84297
1.95072
3.79159
4.06075
2.25757
4.08086
3.0261
-3.06471
0.0386085
-3.03295
6.05905
0.722916
-5.48815
-4.59798
6.95006
3.83837
7.01163
-7.35134
-3.28613
-7.1135
-6.07136
-3.97083
-6.31008
6.5671
3.36135
6.32809
-7.71798
7.66496
6.71225
3.41384
6.71331
-6.7878
-3.33603
-6.7786
10.1852
-2.72333
-7.46182
-6.79977
-5.31724
6.88462
3.58148
7.39704
4.73775
7.42912
3.53166
6.65349
-7.11314
1.7959
-3.76598
-1.85602
-3.77959
3.59498
2.06529
3.57674
-4.21415
-2.37411
-4.21522
-4.19944
-2.44665
4.2562
2.27223
-4.26392
-3.44619
4.37397
2.21542
3.05547
-7.33126
3.55129
-6.70837
-6.27727
-2.56305
-6.16551
4.03431
2.55095
-6.58526
-2.55281
10.7085
-5.04619
9.11799
-7.26754
-4.34393
-7.23709
-8.80338
-2.43248
-8.72912
-5.22161
5.13526
-5.54257
5.229
10.4918
-5.88441
-4.6074
-3.96389
-2.38167
3.9875
-0.638167
-3.70232
3.74093
0.0940991
3.90483
4.74514
4.10698
-3.81833
-1.96917
-3.82617
3.80377
1.97663
3.79612
8.53874
2.23451
8.29308
-7.46512
-3.67291
-7.92831
5.69135
-5.92203
2.97949
-2.97926
5.09836
2.41635
-4.95556
-2.61911
5.87896
-3.04161
-2.83735
-13.2311
9.88154
3.34956
-5.56093
-0.950078
0.546279
-5.06246
-2.91112
4.71521
0.987557
10.8691
7.95798
-5.48602
5.70829
6.10999
6.12512
-0.208195
3.9523
-3.60646
4.55437
-0.519249
-4.03512
5.73023
-6.159
-2.19807
-5.65897
3.4609
-0.200219
1.36542
-1.57232
-2.02503
-0.442954
-1.85112
1.50122
0.884114
1.60946
0.940923
1.65095
-2.63149
0.421615
2.20987
-1.69056
-1.79252
-3.73574
-0.411495
4.14724
5.52795
1.8352
-5.40778
-0.140463
2.72238
-2.65874
-1.20426
-2.53148
1.504
-2.70826
-3.06956
-2.07439
5.14396
-3.34324
-0.482931
3.28717
0.50442
-3.77061
-2.11127
3.77565
0.305205
-2.96118
6.00564
-3.04447
-4.93035
2.57235
3.4867
4.52307
-4.64766
2.32264
2.32502
-1.16096
5.98985
1.02179
6.00662
-8.94922
5.66308
7.7052
3.73721
-7.87152
0.758021
-8.1912
9.48603
-8.30346
-1.18257
4.78592
4.70011
5.35522
5.13659
-3.52001
8.87523
-1.15678
-7.14668
9.34798
-5.61076
5.63184
-11.2426
-10.7684
3.62175
-6.77356
8.3517
-1.57814
-2.30733
-5.41064
9.08089
-0.755665
-8.32523
5.57243
-5.22719
-5.40305
10.6302
-7.95052
8.73908
-2.50976
-6.22932
-6.4987
-3.99687
6.61547
1.04949
-9.70568
11.5016
-3.05218
5.75033
0.962982
5.76973
3.89611
-5.95362
2.05751
4.05441
-6.56417
2.35105
-8.30467
-4.85722
9.44221
-4.58499
-7.42026
-6.60101
-0.819254
1.99525
9.50632
-6.733
5.29383
1.43917
3.25064
0.545476
-3.34027
-0.439316
0.328392
4.38652
-4.71491
3.90513
4.02692
3.47039
0.916134
3.82187
2.03015
-3.83922
-0.375996
-3.84537
1.39872
-1.57314
-3.46048
4.8592
-3.87674
0.416253
-2.64894
-3.38781
6.03675
-4.50497
2.91667
3.08898
4.89329
-4.76818
1.38037
-2.39902
-2.36916
2.49636
-4.0695
1.88101
2.97819
4.09643
0.650236
4.77841
4.6638
-7.32936
0.62099
8.0613
-6.71027
1.5691
5.86002
-6.86294
0.261929
-5.90358
1.14905
-6.19524
-5.4362
6.36956
-8.80204
-4.87305
7.95474
0.338346
-7.82754
-0.901579
-3.72694
-1.49468
-3.89139
-1.78508
-3.75748
-5.30509
-1.17446
-4.13063
3.9608
-4.16463
-2.14545
4.47841
0.750593
-4.54459
4.47939
-4.57812
4.40701
0.18203
3.5589
4.28901
1.90734
-2.39794
4.30528
-6.78759
9.0221
-10.4776
3.69001
4.08344
-7.75635
-6.39416
3.56829
2.12305
3.32698
5.81799
-7.2025
1.38451
-6.46201
7.33716
-0.875147
-9.92045
3.45844
-4.10246
2.68482
0.29467
2.65943
0.686359
2.24087
-2.92723
-2.2929
-2.28389
-2.22354
-3.20456
5.42811
1.03543
-3.22464
2.18921
-3.22994
4.26537
-0.246039
-2.9786
5.02096
-2.78008
5.31563
-3.47598
1.83965
3.09888
5.20214
-2.10326
4.10762
-1.69126
1.71606
-3.81933
-1.4885
-2.90329
4.96858
-3.13346
3.54972
-0.253662
3.80338
-3.99777
0.956167
-0.527385
3.49953
3.68153
3.98518
-3.06905
2.6715
-4.36276
-1.14783
-3.71253
-0.734331
-1.21887
-4.98445
6.20332
4.85171
-6.07057
-3.20479
6.0165
-2.81171
5.18159
-3.86257
-1.31902
-2.81346
-3.10856
2.82054
1.13176
6.31335
0.0850148
-3.94758
-3.52144
-2.78902
4.20842
0.34595
-2.36743
5.717
1.82115
-0.455737
0.426958
1.18251
1.49914
-1.07218
0.363748
1.13539
-1.20858
1.98668
0.7357
-2.05644
0.205326
-1.43348
2.93749
0.77639
-1.6605
0.588325
2.17034
-2.68959
4.48031
-1.50036
-2.97994
6.65065
1.7519
-3.25227
3.90707
-4.10729
2.56704
-2.97853
-0.685227
-4.79251
-3.6479
-2.22664
4.41584
-3.20147
5.03667
1.34628
-4.89621
6.24249
-3.41041
1.33601
-2.74461
3.48031
-0.854965
-1.88964
2.56576
2.57819
-2.74563
0.214148
-0.179867
2.07488
-2.25475
-0.633382
-2.32395
-4.39612
4.70133
-2.16673
4.48936
2.13856
-1.93923
6.42859
1.80526
-3.74449
-3.12509
-3.60802
-1.41946
3.1036
-0.823411
-5.95519
-7.05273
5.85207
0.154554
-8.99527
10.0895
-1.09424
-5.1569
-0.506182
5.29211
-7.26016
0.695994
-4.90912
5.1804
6.20218
6.35674
-8.19566
-0.129571
-4.83431
1.11441
-5.94872
5.81452
-2.74765
6.3694
-6.87817
4.73272
-6.12757
5.18683
-0.761889
5.38861
-3.3311
2.07321
-6.07009
-5.0206
6.95377
-3.53993
7.91675
-4.03812
11.9549
-7.09031
6.93604
5.01884
-1.3838
-5.85329
-6.79909
5.41528
0.136951
5.90668
4.79583
-2.76567
4.41983
2.02379
-4.42281
-2.04572
-6.29749
1.87468
-3.20851
-1.77723
3.65191
3.11606
3.66154
1.28275
-3.22222
6.60183
-7.42108
-2.01684
-3.41936
6.75098
-1.3357
3.78818
-7.20755
-2.40706
5.26098
-0.69794
-4.56304
0.623428
-5.49648
2.6091
-8.10558
6.19293
-7.09451
1.28129
-5.38376
-3.2633
-3.39164
-1.38634
-3.19178
-4.59565
3.2093
-1.13721
3.34219
-5.32461
4.62667
-2.01255
5.22185
-3.39949
-0.4919
3.53093
0.876081
6.09793
-0.726695
-5.66746
-0.896151
5.46329
-4.56714
3.31227
-5.71114
-0.247849
3.30955
3.3411
-6.77045
-0.985899
-6.65336
-2.64055
4.7636
3.37595
8.22766
1.02516
5.12134
-0.357735
6.1465
2.96925
2.78868
-3.81971
5.20423
2.3836
6.07361
-0.8181
2.65775
1.84133
1.89064
0.768102
2.21124
1.47029
3.16741
0.240173
-2.04371
3.77389
-6.56291
-0.173688
-5.69737
2.52102
4.70078
-2.17976
4.49469
-4.14874
-0.0724504
2.22666
-0.874708
-1.35195
-1.80846
-1.33045
-0.195056
-1.35609
1.94442
1.58139
-1.74936
-0.0590923
0.000870723
-3.64877
2.97766
-2.76351
-0.185322
6.05717
-2.35958
0.10483
-1.02356
-2.21912
-2.66207
2.45675
6.03408
0.394511
2.98962
5.09584
2.98457
0.218892
4.33663
-5.91477
-3.96803
-6.04435
-0.229827
5.06228
1.81534
7.69098
6.83418
5.49848
-1.70907
-9.13015
7.2414
-2.03717
6.36625
-1.80321
-6.30237
6.38132
2.64078
-6.71966
-0.374849
-6.67721
-8.71439
-0.446851
5.07352
-5.65108
5.15918
3.6645
0.466123
-2.80393
-0.587706
2.96371
-0.175036
5.97146
-1.72369
-5.99452
7.71821
-2.97709
2.8034
4.90681
0.810182
3.55486
-0.593882
-6.5884
-8.76816
-1.03869
-1.6509
-4.01864
0.128598
-1.70999
4.18091
-1.37751
2.86189
6.3407
6.26825
-1.80986
-4.26071
4.62158
-1.75968
4.50856
)
;

boundaryField
{
    wall-4
    {
        type            calculated;
        value           uniform 0;
    }
    velocity-inlet-5
    {
        type            calculated;
        value           uniform -3.75095;
    }
    velocity-inlet-6
    {
        type            calculated;
        value           uniform -5.62643;
    }
    pressure-outlet-7
    {
        type            calculated;
        value           nonuniform List<scalar> 8(6.73678 6.41382 6.36758 6.69477 6.53777 6.61461 6.53612 6.61189);
    }
    wall-8
    {
        type            calculated;
        value           uniform 0;
    }
    frontAndBackPlanes
    {
        type            empty;
        value           nonuniform 0();
    }
}


// ************************************************************************* //
