/*--------------------------------*- C++ -*----------------------------------*\
| =========                 |                                                 |
| \\      /  F ield         | OpenFOAM: The Open Source CFD Toolbox           |
|  \\    /   O peration     | Version:  4.0                                   |
|   \\  /    A nd           | Web:      www.OpenFOAM.org                      |
|    \\/     M anipulation  |                                                 |
\*---------------------------------------------------------------------------*/
FoamFile
{
    version     2.0;
    format      ascii;
    class       volVectorField;
    location    "2";
    object      U;
}
// * * * * * * * * * * * * * * * * * * * * * * * * * * * * * * * * * * * * * //

dimensions      [0 1 -1 0 0 0 0];

internalField   nonuniform List<vector> 
918
(
(0.942885 -0.0825955 0)
(0.00645944 2.96568 0)
(-0.111437 1.76029 0)
(0.840012 0.112751 0)
(-0.00951053 1.71651 -8.7668e-21)
(-0.00840795 2.94729 -4.39585e-19)
(1.20073 1.64793 2.46261e-19)
(0.534146 0.300062 -5.19359e-21)
(0.980087 0.00017195 0)
(0.0460104 1.77356 0)
(0.0191372 1.71421 0)
(0.932874 0.0221492 0)
(0.00606931 2.93565 0)
(0.0088744 2.84542 0)
(-0.0854263 2.86718 3.83944e-19)
(-0.00233144 1.69908 -1.27738e-20)
(0.69429 0.148209 4.7163e-19)
(0.243411 2.0238 2.44056e-19)
(0.970204 0.0234134 0)
(0.026061 1.72113 0)
(0.809574 0.348068 -1.07751e-19)
(0.885822 -0.0249963 0)
(0.894132 -0.0334418 0)
(0.999115 0.0430002 0)
(0.847801 0.0482621 0)
(0.00159139 2.7927 0)
(-0.0470726 2.91088 1.10478e-19)
(-0.0284762 1.74194 0)
(-0.0264836 1.70848 0)
(-0.0569491 1.72147 0)
(0.0170467 1.76357 0)
(-0.0216792 1.7167 6.83918e-21)
(-0.0291573 1.70259 0)
(-0.0212717 2.98403 -1.38436e-23)
(-0.0185477 3.00538 3.48857e-19)
(0.00226084 3.00036 0)
(0.974354 -0.00561864 0)
(0.744194 0.969035 8.33637e-20)
(1.09324 1.66918 -1.73171e-19)
(1.2807 1.42473 2.38883e-19)
(0.950615 1.86779 -5.57103e-20)
(1.00144 1.86448 3.61332e-19)
(0.580346 0.309489 5.06445e-21)
(0.56307 0.291675 0)
(1.3523 0.739471 0)
(0.545824 0.335175 1.94451e-20)
(0.483272 0.329132 -2.01891e-20)
(0.970634 -0.0188742 0)
(1.00211 0.000291062 0)
(0.983448 -0.00211444 0)
(0.95249 -0.0835682 0)
(0.995659 -0.00577861 0)
(1.01077 0.0016393 0)
(-0.0160947 1.5916 -2.40468e-19)
(0.0115886 1.82207 0)
(0.0310757 1.82167 0)
(0.00817344 1.77949 0)
(-0.0127715 1.75315 0)
(-0.0197368 1.693 0)
(0.0128991 1.7479 0)
(0.00726975 1.71883 0)
(0.00761177 1.74786 0)
(0.00143643 1.71649 0)
(0.994249 0.00080892 0)
(0.962546 0.0165964 0)
(0.945381 0.00321724 0)
(0.945762 -0.00523351 0)
(0.938046 -0.0124621 0)
(0.0173133 2.99893 1.57563e-19)
(0.0127634 3.01413 0)
(0.00763753 3.00131 0)
(0.00780711 2.99329 1.67271e-24)
(0.00919386 2.95361 -2.38026e-19)
(-0.008846 2.98603 0)
(-0.0260404 2.91733 0)
(0.0057511 2.94979 1.51302e-25)
(0.00791154 2.85747 0)
(0.00203292 2.94584 0)
(0.0101598 2.82681 0)
(0.0924376 3.00911 0)
(-0.136267 3.03815 0)
(0.012405 2.94538 -3.53952e-19)
(-0.070746 2.85553 0)
(-0.010772 1.74173 0)
(-0.00136481 1.72417 1.25994e-20)
(-0.00265952 1.68481 -2.02506e-20)
(0.739617 0.17207 -1.65543e-19)
(0.725042 0.136557 -1.63087e-19)
(0.711011 0.220983 -4.82964e-19)
(0.667312 0.200099 -3.07988e-19)
(0.203198 1.36043 0)
(0.340395 2.08882 -2.6267e-19)
(0.480611 2.06799 4.4535e-19)
(0.983762 -0.00276985 0)
(0.949394 0.000711613 0)
(0.992915 -0.00377465 0)
(0.985727 0.0491401 0)
(0.970422 0.0326849 -1.58142e-18)
(0.996238 0.0535969 1.19372e-18)
(0.00988024 1.74412 0)
(0.0230426 1.70966 0)
(-0.0027243 1.74148 0)
(0.0101271 1.73092 0)
(-0.0111279 1.72233 0)
(0.569857 0.297976 3.20537e-20)
(0.497743 0.432447 0)
(1.00469 0.0396232 0)
(0.974249 0.0152449 0)
(0.945468 0.0163249 0)
(0.896942 0.05109 0)
(0.898546 0.00885341 0)
(1.11912 -0.00285837 0)
(0.837514 0.0430305 0)
(0.802859 0.0103667 7.47426e-19)
(0.0354385 2.86805 -3.16233e-20)
(0.0184292 2.94638 0)
(0.058138 2.91469 0)
(0.026998 2.81259 0)
(-0.0351345 2.97406 8.27114e-20)
(-0.025774 2.86014 0)
(-0.0628912 2.97017 -3.15068e-19)
(-0.0595239 2.91781 1.27226e-19)
(0.0240675 1.75852 0)
(0.0051965 1.76031 0)
(-0.0110755 1.72785 -5.26823e-22)
(-0.015339 1.73864 0)
(0.0226543 1.69256 0)
(0.9989 0.00841742 0)
(0.985439 -0.0122997 0)
(0.957797 -0.00649525 0)
(1.00034 0.00611608 0)
(0.966886 0.0213466 0)
(0.818003 1.06447 -1.07081e-19)
(0.657665 0.939382 0)
(0.814179 1.18794 1.53779e-20)
(0.711944 1.07936 0)
(1.1835 1.39823 -5.66555e-20)
(1.29592 1.16279 7.75074e-20)
(0.594421 2.079 0)
(0.763756 2.02754 0)
(0.765904 2.01375 0)
(0.526865 1.21262 -1.44931e-19)
(0.603071 0.308004 0)
(0.592895 0.251092 7.98818e-20)
(1.21191 1.18256 0)
(1.25564 0.941201 0)
(1.34985 0.914641 -5.12468e-20)
(1.27934 0.746462 0)
(1.3599 0.532831 2.86298e-20)
(0.997473 0.0118323 0)
(0.992713 -0.00189355 0)
(0.980563 -0.00990516 0)
(0.994996 0.00526501 0)
(0.993819 -0.0108136 0)
(0.95965 0.0135401 0)
(0.997898 0.00906433 0)
(0.977766 -0.000733325 0)
(0.989199 0.00517857 0)
(-0.0185236 1.63063 1.26771e-19)
(0.0174433 1.58785 0)
(0.0116441 1.64559 2.19736e-19)
(0.0296932 1.64132 -1.89022e-19)
(0.157551 1.98919 -1.993e-19)
(0.0208654 1.88995 0)
(0.0755573 1.90627 0)
(-0.0185023 1.78897 0)
(-0.0319408 1.7448 0)
(-0.0108865 1.72679 -6.73585e-22)
(0.00762273 1.69572 0)
(0.0034407 1.7285 -3.51692e-20)
(0.0110957 1.71644 6.17685e-20)
(0.0178457 1.78118 0)
(0.0173383 1.74078 0)
(0.0233898 1.70838 0)
(-0.00295967 1.73688 0)
(-0.00485679 1.70847 0)
(1.02817 0.0142118 0)
(1.01325 0.007807 0)
(1.00673 0.00260584 0)
(0.973811 -0.0109144 0)
(0.962688 -0.0146706 0)
(0.985365 0.00672665 0)
(0.960161 0.015125 0)
(0.934739 0.00105091 0)
(0.0444574 3.04767 -1.05765e-21)
(0.0478002 3.04649 0)
(-0.0238222 2.97427 0)
(-0.0294927 2.91732 0)
(0.63845 3.18992 0)
(0.921306 2.48108 2.84044e-19)
(-0.00167126 2.94756 0)
(-0.0483883 2.8808 0)
(-3.72905e-05 1.75998 0)
(-0.00641545 1.71869 0)
(-0.00690883 1.74202 0)
(-0.00158077 1.77282 -1.17434e-21)
(-0.019882 1.7619 0)
(0.00579506 1.76803 0)
(0.0220077 1.70591 3.66312e-21)
(0.0199401 1.74653 2.20121e-20)
(0.00280472 1.73907 2.05912e-20)
(0.020206 1.70983 0)
(0.765159 0.129971 2.595e-19)
(0.737917 0.0758716 -2.52974e-19)
(0.186301 1.40453 0)
(0.244922 1.32686 -9.13099e-20)
(0.141326 1.46818 -2.71081e-19)
(0.132246 1.43575 2.70158e-19)
(0.978885 -0.0154408 0)
(0.983856 -0.0145862 0)
(0.980584 -0.0068625 0)
(0.957273 0.0116061 0)
(-0.00504816 1.74526 0)
(0.0134415 1.75749 0)
(-0.0102838 1.72947 0)
(0.521507 0.330159 1.51997e-19)
(0.550541 0.335937 -1.23589e-19)
(0.469274 0.343405 0)
(1.20222 0.088874 1.95592e-20)
(1.22033 0.0316455 0)
(1.12469 0.0453278 0)
(1.05887 -0.00108181 0)
(0.782834 0.102695 0)
(0.825332 0.054282 -1.1943e-18)
(0.757922 0.0445644 4.49306e-19)
(0.0437761 2.97068 1.62658e-20)
(0.0281739 2.86189 1.69776e-20)
(0.047807 3.04611 -2.35308e-21)
(0.0390773 3.03422 9.896e-20)
(-0.0294741 3.00067 4.27036e-21)
(-0.0402618 2.94761 -1.64541e-23)
(-0.0250896 3.01114 -8.11939e-20)
(-0.00134876 3.00908 5.83697e-20)
(0.0157997 3.03042 -1.00859e-19)
(1.01567 0.00896181 0)
(0.998595 0.0172664 0)
(0.968132 0.0335881 0)
(0.995735 -0.0115006 0)
(0.980891 -0.00118496 0)
(0.956523 -0.00268701 0)
(0.982057 -0.00466102 0)
(0.98969 0.00704532 0)
(0.965105 0.0129921 0)
(0.761483 1.09749 -2.72096e-21)
(0.600408 1.12349 0)
(0.66754 1.18207 4.22275e-20)
(0.682294 1.28854 3.10987e-19)
(0.737561 1.24356 -1.83479e-19)
(0.710214 1.13295 3.46226e-19)
(0.484941 1.30131 6.94412e-19)
(0.514346 1.2353 1.37857e-19)
(0.684204 0.237411 3.2541e-19)
(0.648621 0.280155 8.01503e-20)
(0.647209 0.226117 1.55622e-19)
(1.27537 0.510236 -3.61959e-20)
(1.31826 0.360155 -6.37445e-20)
(0.0126597 1.6945 8.64027e-20)
(0.0127754 1.67621 0)
(1.07533 0.023207 0)
(1.04843 0.0085825 0)
(1.02673 -0.0013854 0)
(0.0406694 3.07089 0)
(0.0157955 2.97762 1.01928e-19)
(-0.00622189 2.98986 0)
(-0.00365878 2.90234 -1.00334e-19)
(0.043625 3.08982 2.11821e-20)
(0.034682 3.06954 0)
(0.710534 1.31961 -4.31585e-20)
(0.865103 1.69416 4.56522e-20)
(0.651389 1.37433 -2.67247e-19)
(0.0221308 2.97838 2.55268e-20)
(-0.00330683 2.97716 0)
(-0.00226428 2.88066 0)
(0.000706594 1.75188 -3.63614e-21)
(-0.0091729 1.73101 -5.19051e-20)
(-0.0261916 1.71423 2.31574e-21)
(0.230454 1.3933 2.84728e-19)
(0.307309 1.33089 -1.95215e-19)
(0.0226576 1.62113 1.91178e-19)
(0.0754256 1.53942 -2.34252e-19)
(0.081062 1.52248 2.87435e-20)
(0.00714625 3.09931 -8.46984e-20)
(0.0175019 3.10537 9.20507e-20)
(-0.0237249 2.95328 5.72486e-20)
(0.0123796 2.95646 -3.17068e-20)
(0.0015613 2.86291 -5.83412e-20)
(0.0226708 3.10044 -1.32825e-19)
(0.0222659 3.10817 1.26156e-19)
(0.536305 1.31486 0)
(0.632096 1.30815 -6.96865e-19)
(0.596163 1.21434 3.11545e-19)
(0.444658 1.33546 3.87145e-19)
(0.447037 1.28364 -6.02935e-19)
(1.25325 0.176485 6.45402e-20)
(1.29132 0.356798 0)
(1.30953 0.184713 -3.83003e-20)
(0.00569252 1.70634 -8.51635e-22)
(-0.0118463 1.70332 0)
(-0.00729753 1.66815 0)
(0.313889 1.39067 -9.98496e-20)
(0.363988 1.35544 -2.41556e-19)
(0.386087 1.29606 4.41964e-19)
(0.991718 -0.0250205 0)
(1.01668 -0.0661 2.97347e-19)
(0.00641161 1.762 0)
(-0.00906364 1.77072 0)
(1.03783 0.00593756 6.44472e-21)
(0.959878 0.0137301 6.08636e-19)
(0.00267302 1.78875 1.55493e-21)
(0.0339672 1.80098 0)
(-0.00369026 3.09407 -1.37295e-19)
(0.0821392 3.07152 0)
(1.11469 0.667409 -6.61088e-20)
(1.01302 -0.0134506 -5.04059e-21)
(0.999659 0.0236288 0)
(1.01179 -0.00318944 -2.53117e-21)
(0.0878745 1.86287 0)
(0.0532036 1.69467 0)
(-0.0205767 1.77707 0)
(0.0191922 1.74574 5.0881e-20)
(-0.0129402 1.76474 3.1058e-20)
(0.98257 -0.00227523 2.36613e-21)
(1.04365 0.0431649 0)
(1.05867 0.0295628 0)
(0.00755242 1.74389 0)
(0.00598092 1.76726 0)
(-0.0172007 1.77326 0)
(0.261234 1.944 -6.65041e-20)
(0.967776 -0.0259831 0)
(0.989691 -0.0331611 0)
(1.00091 5.53312e-05 3.79856e-19)
(1.02666 0.00057011 -4.5033e-19)
(1.04784 -0.0353359 0)
(-0.00330924 1.74357 0)
(0.01276 1.74244 0)
(0.00536635 1.7371 0)
(-0.0135406 1.77661 0)
(-0.00952612 1.77092 0)
(-0.00435802 1.76545 0)
(1.0211 0.00590142 0)
(1.01569 -0.0173244 -3.28924e-21)
(0.827837 1.62402 8.62591e-20)
(0.995518 -0.0226835 -3.77112e-19)
(1.04527 0.0211425 4.54084e-19)
(1.03262 0.00782114 0)
(1.00027 -0.00518198 3.62575e-19)
(0.992265 0.028376 -4.5246e-19)
(1.00321 0.0203261 0)
(0.0162361 1.77213 0)
(0.0166621 1.76421 1.90098e-20)
(0.00607507 1.76788 -1.38363e-20)
(1.15728 0.284587 4.21208e-19)
(1.08538 0.0690335 0)
(0.0413016 3.13076 3.95044e-20)
(0.0397091 2.9245 -3.92763e-21)
(-0.010387 3.17628 -2.87339e-19)
(0.00732895 3.12007 8.29819e-20)
(-0.0053548 3.04856 0)
(0.000604956 3.09991 -2.85941e-20)
(-0.00894915 3.11533 -3.21215e-20)
(0.01614 3.10903 4.50655e-20)
(-0.00237563 3.08435 0)
(0.667551 0.307271 0)
(0.558351 0.382352 0)
(1.06947 0.737051 1.83094e-19)
(1.13659 0.900722 -2.18714e-19)
(1.08085 0.612228 0)
(1.15285 0.565268 0)
(1.02222 0.000611718 -6.9079e-19)
(1.00345 -0.0112062 8.65007e-19)
(1.01324 0.00833662 0)
(1.01435 -0.0255522 0)
(0.987494 0.0282804 0)
(1.01709 -0.00944732 0)
(1.00734 -0.00393414 0)
(1.02385 -0.0391734 0)
(1.01564 -0.0335746 0)
(1.00831 0.0126222 0)
(0.0752714 1.8626 0)
(0.0242511 1.84927 0)
(0.101333 1.87487 0)
(0.106332 1.91383 0)
(0.0464714 1.64817 0)
(0.0566282 1.67294 -1.30947e-19)
(0.0750679 1.71233 0)
(0.0788567 1.7098 7.54597e-20)
(0.0104273 1.74023 -7.70958e-20)
(-0.0198086 1.78055 0)
(-0.00855181 1.77298 0)
(-0.00763855 1.78782 0)
(-0.0153559 1.80038 0)
(0.00627389 1.7305 -2.45769e-20)
(0.00270878 1.75332 4.12434e-20)
(0.0340843 1.76926 4.00684e-20)
(0.0381611 1.76969 0)
(-0.0149663 1.76441 -7.8892e-20)
(0.00707561 1.7608 -4.32106e-20)
(0.000679734 1.73561 1.79761e-20)
(0.00321141 1.71675 -5.17894e-20)
(0.0387762 1.75225 -4.80424e-20)
(0.990815 -0.00530876 6.25174e-19)
(1.00339 -0.0266886 -7.97115e-19)
(0.98806 0.0151538 -6.43907e-19)
(0.935539 -0.00308681 8.30108e-19)
(1.04137 -0.00762279 0)
(1.05537 -0.0103372 0)
(1.04463 0.0118607 0)
(1.05403 0.0437578 0)
(1.05112 0.014806 0)
(1.08371 0.0469992 0)
(1.06808 0.0461753 0)
(1.07122 0.0367979 0)
(-0.0495945 1.75238 -1.22708e-21)
(0.0426976 1.72318 0)
(-0.0174385 1.7363 0)
(-0.0272074 1.76892 1.62567e-20)
(-0.0298957 1.78064 -4.85728e-22)
(-0.00855198 1.77287 -7.10529e-21)
(-0.00530375 1.76479 7.20045e-21)
(0.0106669 1.7672 0)
(-0.0120974 1.76256 0)
(-3.11323e-05 1.76093 0)
(0.00514183 1.77673 0)
(0.00149212 1.77999 0)
(0.440419 1.94548 9.66781e-20)
(0.431428 1.98012 5.85348e-20)
(0.233412 1.48625 -7.02156e-20)
(0.188866 1.53852 1.81649e-19)
(0.319608 1.6798 4.25418e-20)
(1.02103 -0.00180332 0)
(0.998292 0.000936404 0)
(1.02125 0.0283031 0)
(1.00281 -0.0186514 0)
(1.00808 -0.00158656 0)
(0.974763 0.0154723 0)
(0.980693 0.0655647 0)
(1.01313 0.069095 0)
(1.00175 -0.0150763 6.61134e-19)
(1.0149 -0.00290828 -8.35873e-19)
(1.01338 -0.0119431 -6.45426e-19)
(0.997601 0.000777189 8.2494e-19)
(0.823607 1.68379 0)
(0.751807 1.74826 8.49188e-20)
(0.936019 1.5312 1.47006e-20)
(0.959454 1.50577 -1.95162e-20)
(0.962235 1.58221 3.52175e-19)
(0.85285 0.117508 2.8744e-19)
(1.1032 0.100985 0)
(1.1498 0.171226 -3.4466e-19)
(1.13608 0.110138 -1.41355e-20)
(0.952895 0.145798 0)
(-0.0738055 3.18907 -2.04008e-19)
(0.0710335 3.098 1.84981e-19)
(0.0925824 2.68097 2.96098e-21)
(0.468376 0.694972 1.20849e-19)
(0.0207204 3.07683 -1.81101e-19)
(-0.0177934 3.08982 0)
(0.0477901 3.02305 2.30738e-19)
(-0.109196 3.08569 5.44992e-19)
(-0.0903396 3.09936 0)
(0.00246956 3.10428 3.26069e-22)
(0.0113326 3.10494 -2.63509e-20)
(-0.00120163 3.0926 3.66715e-20)
(0.0060879 3.08397 0)
(0.0167261 3.10816 0)
(0.919097 1.85037 0)
(0.135385 0.87759 -2.16415e-19)
(1.11537 1.1613 6.17465e-20)
(0.932651 1.3175 0)
(0.75737 1.14039 -1.01175e-19)
(1.00789 1.06187 1.23921e-20)
(0.52761 0.189664 5.90758e-20)
(0.664048 0.317884 -5.84584e-21)
(0.661116 0.320859 1.69356e-19)
(0.557078 0.374938 7.88249e-21)
(0.53778 0.365073 -2.90014e-19)
(0.659692 0.341494 0)
(0.639387 0.407936 2.46777e-19)
(0.638446 0.385036 0)
(0.564388 0.395085 0)
(0.588375 0.347468 0)
(0.620885 0.700178 2.21431e-19)
(1.16975 0.285212 -3.40067e-19)
(1.17747 0.366769 0)
(1.20206 0.332167 0)
(0.770889 0.224555 2.72447e-19)
(0.664979 0.578504 -1.66414e-19)
(0.621045 0.499089 3.09509e-19)
(0.838249 0.4089 -3.58789e-19)
(1.00397 0.0266679 4.50882e-19)
(1.00737 0.0276243 -4.67863e-19)
(1.00988 0.0417061 0)
(1.02238 -0.00669593 0)
(1.02162 -0.0343734 -4.30078e-19)
(1.02015 -0.00471494 4.2653e-19)
(0.991487 0.0015814 0)
(0.992088 -0.00671017 0)
(1.0145 -0.00651596 0)
(1.01382 -0.00853907 0)
(0.99434 -0.0179738 0)
(0.988038 -0.0145297 0)
(0.0153248 1.83668 0)
(0.0286371 1.82291 0)
(0.0514148 1.79677 2.61974e-21)
(0.24107 1.92973 3.20162e-20)
(0.117299 1.92486 6.82127e-20)
(0.122579 1.93064 -1.12071e-19)
(0.0890668 1.81098 0)
(0.177092 1.74968 -5.95786e-20)
(0.157096 1.78338 0)
(0.295333 1.69765 -6.15008e-20)
(0.268893 1.63478 2.09342e-19)
(0.178029 1.76481 5.22334e-20)
(0.214507 1.89028 6.73023e-21)
(0.176032 1.80927 -5.41188e-21)
(0.341341 1.78276 -5.80901e-20)
(0.218073 1.72083 0)
(0.241961 1.7085 5.10457e-20)
(0.012488 1.72319 -2.65115e-20)
(-0.0009965 1.72744 0)
(0.0491291 1.70845 7.58747e-20)
(0.00367576 1.7139 0)
(0.064844 1.73148 -8.54509e-20)
(0.0303809 1.73334 0)
(0.0341291 1.76583 -3.11762e-20)
(0.0185569 1.77349 0)
(0.0460065 1.7622 0)
(0.047174 1.76885 3.55799e-20)
(0.0174095 1.73829 -5.14948e-21)
(0.031197 1.75184 9.17852e-20)
(0.0330374 1.74016 7.16807e-22)
(0.0434619 1.70723 1.99482e-20)
(0.00674446 1.72404 1.14917e-20)
(0.0294933 1.76444 0)
(0.0144444 1.7615 0)
(0.00576479 1.75134 5.74766e-20)
(-0.00590447 1.7467 5.4524e-20)
(-0.0114781 1.77238 -6.84615e-20)
(0.0335656 1.7544 0)
(-0.0229283 1.75577 -3.84352e-20)
(-0.0155015 1.76662 1.17969e-20)
(0.0126413 1.7809 -5.06923e-21)
(0.0475184 1.72921 -2.4061e-20)
(0.00101352 1.74103 -1.32118e-20)
(-0.0127172 1.74378 5.81466e-20)
(0.999493 0.022349 -4.45863e-19)
(0.997569 0.0130964 4.29317e-19)
(0.99891 0.0404641 0)
(0.972698 0.00422615 5.81859e-19)
(0.926821 0.0672791 -6.59741e-19)
(0.931189 0.0573965 7.28161e-19)
(0.966447 0.0161825 -7.50984e-20)
(1.03653 -0.0158756 0)
(1.04024 -0.0213506 4.12257e-19)
(1.03359 -0.0286632 -4.14647e-19)
(0.980371 0.023211 -2.38434e-20)
(1.00893 0.0256338 1.98186e-19)
(0.983677 0.0602067 0)
(0.990383 0.0560074 -7.185e-20)
(0.999133 0.0431354 0)
(0.995052 0.0445747 0)
(1.01216 0.0444035 0)
(0.997836 0.027045 0)
(1.02079 0.0500023 1.45948e-19)
(1.01148 0.0116709 -3.31575e-19)
(0.959567 0.00582919 -1.53449e-19)
(0.995174 0.0259724 -1.71253e-19)
(1.00267 0.0606652 3.3408e-19)
(1.03708 0.0623284 0)
(1.01487 0.0473164 0)
(-0.000436492 1.77229 -7.50116e-21)
(0.0309424 1.72032 -1.17464e-21)
(-0.0179598 1.76715 0)
(0.00826115 1.77293 7.77495e-21)
(0.0254505 1.75784 2.27607e-21)
(0.0297368 1.76002 -4.5208e-21)
(0.00941364 1.77242 3.92763e-20)
(0.0320559 1.76696 -2.21866e-21)
(0.0334274 1.74886 1.02137e-20)
(-0.0442191 1.77985 -1.81804e-20)
(-0.021669 1.77628 2.2474e-20)
(0.0377045 1.74642 -1.78748e-21)
(-0.0190195 1.71948 1.17086e-20)
(0.435252 1.82185 -3.38129e-20)
(0.400973 1.75221 7.21954e-20)
(0.73068 1.80266 -8.13991e-20)
(0.596973 1.89872 -5.71903e-20)
(0.634918 1.87547 0)
(0.284558 1.48445 7.38235e-20)
(0.350729 1.4724 1.00043e-19)
(0.207926 1.51919 1.75017e-20)
(0.268035 1.5337 -2.46735e-19)
(0.255092 1.50635 2.26154e-19)
(0.249338 1.50196 0)
(0.210889 1.50219 -1.53882e-19)
(0.109585 1.60888 3.40763e-19)
(0.190387 1.59481 -5.59399e-21)
(0.112391 1.60964 -4.50117e-19)
(0.547935 1.45572 4.23075e-19)
(0.482924 1.45206 0)
(1.00649 0.0162599 1.43607e-20)
(1.02013 0.0300844 -1.20915e-20)
(0.990852 -0.0493785 -2.21573e-19)
(1.00745 -0.00129514 2.2356e-19)
(0.995944 0.0372631 0)
(0.734115 1.63929 0)
(0.639593 1.54271 0)
(0.80844 1.35269 0)
(0.589699 1.45889 0)
(0.959642 1.55292 1.81932e-20)
(0.932493 1.51765 0)
(0.619959 1.56357 3.06314e-21)
(0.482566 1.52422 0)
(0.550882 1.50786 -3.00259e-19)
(0.562121 1.51253 1.92944e-19)
(0.849019 0.132307 0)
(0.80248 0.136722 7.68641e-20)
(0.881728 0.0953207 4.60276e-19)
(0.851002 0.113168 -1.67099e-19)
(0.850491 0.104505 -5.41861e-19)
(0.999312 0.199956 -4.95283e-19)
(0.911113 0.278605 -1.06698e-20)
(0.849233 0.262033 4.05915e-19)
(0.920493 0.210993 3.87399e-19)
(0.895408 0.127542 -6.15171e-19)
(0.874738 0.215909 7.5347e-20)
(0.798593 0.262894 -1.7696e-19)
(0.847773 0.235585 0)
(0.952265 0.134019 3.0118e-19)
(0.959085 0.164151 0)
(0.935857 0.222465 0)
(1.04311 0.149751 1.63517e-19)
(0.965291 0.195625 -2.91591e-21)
(0.968945 0.177458 -9.15349e-20)
(1.01474 0.180533 0)
(1.00465 0.0535152 3.2595e-19)
(0.997291 0.0235002 4.06203e-19)
(1.00832 0.0464195 -3.15454e-19)
(1.0027 0.0625734 -2.74966e-19)
(0.968674 0.0503505 -4.12356e-19)
(0.955641 0.13868 0)
(0.965734 0.0296805 0)
(0.917988 0.0737723 -2.57743e-19)
(0.903725 0.0409902 9.74425e-20)
(1.00818 0.0766165 3.65666e-19)
(1.00373 0.106352 -4.60125e-19)
(0.970458 0.121074 4.03722e-19)
(0.944295 0.133589 0)
(0.981593 0.0834911 0)
(0.980435 0.0638914 -1.86e-19)
(0.993999 0.0722793 -3.02208e-19)
(0.591099 1.58809 1.22626e-19)
(0.584931 1.64234 -1.49038e-19)
(0.789163 1.75962 -1.65836e-19)
(0.795817 2.0944 2.44494e-20)
(0.974036 1.68663 -3.14651e-19)
(0.941168 1.82113 -7.50649e-21)
(0.996782 1.65516 1.13817e-20)
(0.876647 1.93307 -1.2705e-19)
(0.880423 1.83992 2.29882e-19)
(0.787743 2.31203 -3.06457e-20)
(0.922109 2.06362 3.28685e-20)
(0.866878 2.10905 0)
(0.166512 1.09773 -3.19333e-20)
(-0.342187 2.01569 -1.9093e-19)
(0.546619 0.259507 3.86288e-20)
(0.220747 0.464322 -1.05778e-19)
(0.519193 0.376417 1.59368e-19)
(0.490815 0.371433 -2.57068e-19)
(0.441865 0.300401 1.74686e-19)
(0.524338 0.336472 -2.89897e-20)
(0.505513 0.332068 1.32278e-19)
(0.766954 0.264069 -1.58843e-19)
(0.687776 0.315738 0)
(0.712467 0.260063 3.00275e-21)
(0.546464 0.470382 1.34496e-19)
(0.529951 0.458628 -4.85553e-19)
(0.476146 0.378326 -1.83501e-20)
(0.511076 0.397202 0)
(0.374795 0.953016 2.13993e-19)
(0.700601 0.937598 2.56127e-19)
(0.582009 1.00744 -2.93881e-19)
(0.701256 0.942445 -1.04337e-19)
(0.864734 0.935981 -3.30552e-20)
(0.855169 0.974543 3.37432e-20)
(0.734985 0.646447 -3.71322e-19)
(0.769449 0.803075 9.7702e-20)
(0.902446 0.819621 0)
(0.865185 0.76953 -1.30835e-19)
(0.87728 0.306068 1.17234e-19)
(1.04364 0.328798 1.88172e-19)
(1.02477 0.239807 1.96284e-19)
(0.881491 0.408472 -2.37493e-19)
(1.03081 0.387559 0)
(1.01191 0.396634 0)
(0.803451 0.387465 3.46917e-21)
(0.765835 0.276546 0)
(0.757358 0.277921 1.85255e-19)
(0.876334 0.263782 -9.60809e-21)
(0.851509 0.417659 1.00873e-18)
(0.784671 0.501423 2.6968e-19)
(0.81152 0.442145 -2.6285e-19)
(0.724019 0.39256 2.79452e-19)
(0.717832 0.433288 1.55693e-19)
(0.667954 0.41444 -1.52701e-19)
(0.977029 0.0421956 3.60258e-19)
(0.988318 -0.0304132 0)
(1.02053 -0.00879302 2.37222e-19)
(0.965753 0.0258293 -5.33153e-19)
(1.01189 -0.014869 2.60292e-19)
(1.01386 0.0329877 -5.4997e-19)
(1.0147 -0.00482901 0)
(0.986185 -0.0245485 -1.13617e-19)
(1.01485 0.0330196 2.88259e-19)
(0.990627 0.0137138 -1.48828e-19)
(0.973005 -0.028493 1.07956e-19)
(0.0238329 1.81665 0)
(0.04612 1.76901 0)
(0.0360565 1.80438 0)
(0.034176 1.81345 0)
(0.074265 1.77999 6.3003e-20)
(0.07768 1.77855 -3.02427e-20)
(0.084605 1.74488 -1.89413e-20)
(0.0839108 1.74881 -1.08186e-20)
(0.0333949 1.73418 -6.66711e-20)
(0.0472601 1.76064 4.92449e-20)
(0.0483906 1.78914 -1.15336e-20)
(0.0378926 1.78665 -2.55933e-20)
(0.0117134 1.76848 -4.17822e-21)
(0.0104481 1.77774 -6.44074e-21)
(0.0912374 1.71397 -7.98026e-20)
(0.108347 1.72594 0)
(0.115076 1.70995 5.27919e-20)
(0.117307 1.77614 3.58393e-20)
(0.150673 1.67521 -4.11111e-20)
(0.14503 1.62503 0)
(0.168145 1.59415 -2.46018e-19)
(0.228085 1.61237 1.71008e-19)
(0.121029 1.67368 -1.07325e-19)
(0.120624 1.67172 6.23586e-20)
(0.0687638 1.6068 0)
(0.0223659 1.72727 -6.60733e-20)
(0.0172706 1.74879 -8.89813e-20)
(0.00167393 1.71002 0)
(0.0268253 1.76046 -1.65017e-21)
(0.0154628 1.73382 3.27919e-20)
(-0.00606232 1.78613 2.00223e-21)
(0.0148959 1.78242 -3.13212e-20)
(0.0139361 1.77788 -1.60445e-21)
(-0.00830879 1.74465 2.32395e-20)
(0.0315876 1.77605 0)
(-0.00315663 1.7916 0)
(0.00491024 1.77031 2.01416e-20)
(-0.0141822 1.77502 -6.18768e-21)
(-0.0226748 1.78255 0)
(-0.024651 1.76603 1.64853e-20)
(-0.0238846 1.76278 -3.14619e-20)
(0.966874 0.0479196 0)
(1.02109 0.071778 -3.80727e-20)
(0.999892 -0.000183247 -2.55965e-19)
(0.956591 0.0057484 0)
(0.995376 0.00123711 0)
(1.01389 -0.0394236 -1.35563e-20)
(0.969818 -0.0183429 4.3822e-19)
(0.991202 -0.00504821 5.26892e-19)
(0.985238 0.0137865 0)
(1.00306 0.00131724 0)
(0.994464 -0.00588704 2.64004e-19)
(0.998614 0.0201518 0)
(0.99688 0.0208528 0)
(-0.0234823 1.77524 0)
(-0.0157557 1.70136 4.57282e-21)
(-0.0306116 1.76078 6.57945e-21)
(-0.021655 1.76369 0)
(0.0190035 1.67257 1.16563e-20)
(0.0387807 1.7429 1.53569e-22)
(0.01158 1.7842 0)
(0.425421 1.66752 0)
(0.352234 1.68956 -1.51742e-19)
(0.383638 1.66472 0)
(0.441665 1.76113 1.3793e-19)
(0.488105 1.79394 0)
(0.465415 1.79191 -4.17963e-20)
(0.61981 1.49823 -9.05423e-21)
(0.583697 1.46054 -4.99868e-19)
(0.631948 1.44036 6.20147e-19)
(0.527161 1.44249 1.14299e-19)
(0.53285 1.49787 0)
(0.540362 1.49486 0)
(0.551278 1.46195 0)
(0.538629 1.44149 -4.18551e-19)
(0.375587 1.52775 -2.2736e-19)
(0.439833 1.4951 -5.5822e-20)
(0.467275 1.50338 4.56099e-20)
(0.375921 1.48155 0)
(0.448086 1.47566 0)
(0.40705 1.47983 -1.21891e-19)
(0.426499 1.48349 0)
(0.487596 1.48921 0)
(0.336965 1.49584 -3.31234e-19)
(0.346033 1.26001 -2.46068e-20)
(0.570373 1.59118 0)
(0.433403 1.63325 5.15975e-19)
(0.635768 1.13321 -9.86607e-20)
(0.738592 1.20116 0)
(0.698123 1.16828 1.59854e-19)
(0.433464 1.39121 0)
(0.461308 1.24666 0)
(0.828303 1.58751 -1.6624e-19)
(0.758829 1.65905 -1.34104e-19)
(0.661296 1.60893 2.52482e-19)
(0.672142 1.58698 -7.68657e-20)
(0.791544 1.52697 0)
(0.725276 1.50503 1.00701e-19)
(0.891183 1.5001 -1.59787e-19)
(0.829798 1.48898 -9.68537e-21)
(0.594813 1.56858 0)
(0.585308 1.60232 -1.06162e-19)
(0.591302 1.58644 0)
(0.817475 0.202974 0)
(0.811847 0.158765 0)
(0.763925 0.198504 0)
(0.809702 0.221547 -2.94679e-19)
(0.771399 0.226347 1.67201e-19)
(0.917738 0.0210601 -2.0249e-19)
(0.924891 0.083438 0)
(0.875328 0.0835975 8.74936e-20)
(0.862624 0.0578161 3.54689e-19)
(0.875061 0.0266083 -2.23151e-19)
(0.64859 2.56933 -1.56684e-19)
(0.674985 2.47148 0)
(0.645529 2.69888 -4.73167e-19)
(0.137495 2.93425 3.79679e-19)
(0.154894 2.5755 1.58172e-20)
(-0.121589 1.48312 2.89092e-19)
(0.0543287 1.65823 0)
(-0.259731 0.595461 -6.6426e-21)
(-0.0666878 0.716321 3.53032e-19)
(0.212789 0.13309 -1.92201e-20)
(0.462608 0.406627 -6.8538e-21)
(0.559012 0.456476 1.48061e-19)
(0.562641 0.460636 0)
(0.338292 0.532217 0)
(0.389005 0.47496 0)
(0.867939 0.670162 9.10022e-20)
(0.790753 0.529903 -2.60205e-19)
(0.815137 0.609314 2.29892e-19)
(0.852658 0.489483 -2.0751e-19)
(1.05149 0.497179 0)
(0.99491 0.592905 -6.44993e-20)
(0.729929 0.358923 -3.73545e-19)
(0.723379 0.350795 -4.79331e-19)
(0.665119 0.410992 2.92263e-19)
(0.713521 0.352265 -2.78545e-19)
(0.758855 0.299841 -2.27713e-19)
(0.736849 0.330627 2.80131e-19)
(1.01138 -0.00279513 -2.73359e-19)
(1.01568 0.00614534 5.70572e-19)
(1.00514 0.0563449 3.41166e-19)
(1.01426 0.0254961 -4.11031e-19)
(0.94758 0.00584568 0)
(0.932732 0.00278159 -6.93714e-19)
(0.0549479 1.73761 1.71647e-20)
(0.0310498 1.74099 0)
(0.0530277 1.75577 1.21796e-19)
(0.0576883 1.76204 -1.08241e-19)
(0.04151 1.70371 3.48212e-20)
(0.0468803 1.72065 0)
(0.0686925 1.75225 0)
(0.0138793 1.78588 -4.09265e-21)
(-0.0110049 1.68817 3.71694e-21)
(0.0114196 1.67162 2.27827e-21)
(0.0423049 1.7574 -1.23017e-20)
(0.0540036 1.74364 1.06803e-20)
(0.523596 1.60548 -3.17648e-19)
(0.508107 1.61196 3.37068e-19)
(0.511098 1.69204 -9.08678e-20)
(0.507014 1.64685 1.41398e-20)
(0.720529 1.64971 0)
(0.559251 1.77482 -3.49063e-21)
(0.601165 1.74328 3.35836e-21)
(0.557623 1.75144 8.89351e-20)
(0.599201 1.6745 0)
(0.63013 1.60165 0)
(0.387942 1.51149 3.43515e-19)
(0.321487 1.48084 5.3113e-19)
(0.3757 1.4758 -3.61334e-19)
(0.269521 1.50691 -6.28037e-20)
(0.32251 1.51662 1.18547e-19)
(0.237869 1.4984 -2.90863e-19)
(0.685542 1.46452 -3.39669e-19)
(0.781623 1.48228 0)
(0.744473 1.46072 -3.55271e-19)
(0.67122 1.48558 0)
(0.660172 1.47726 0)
(-0.161474 2.29849 -1.3226e-19)
(0.397975 2.1694 -4.85723e-20)
(0.305766 2.31442 8.13155e-20)
(-0.399956 1.61618 0)
(-0.507767 1.3701 -8.89639e-20)
(-0.377396 1.4947 -2.47739e-19)
(-0.250772 2.40199 0)
(-0.327311 2.60526 -1.07095e-20)
(-0.287027 2.77653 0)
(0.369063 0.711452 -4.50753e-19)
(0.581453 0.800007 5.79049e-19)
(0.630535 0.679025 -5.54005e-19)
(0.369426 0.601163 -5.0452e-20)
(0.521907 0.528523 -1.97065e-19)
(0.506498 2.07248 3.6299e-20)
(0.573605 1.89715 -1.79498e-19)
(0.155704 2.06025 4.54009e-19)
(0.336303 1.91226 -3.18987e-19)
(0.563815 1.71114 -3.39114e-19)
(0.646383 1.80272 -5.38444e-20)
(0.655721 1.7634 2.29229e-19)
(0.509005 1.89959 1.8402e-20)
(0.497521 1.78489 1.41958e-19)
)
;

boundaryField
{
    wall-4
    {
        type            noSlip;
    }
    velocity-inlet-5
    {
        type            fixedValue;
        value           uniform (1 0 0);
    }
    velocity-inlet-6
    {
        type            fixedValue;
        value           uniform (0 3 0);
    }
    pressure-outlet-7
    {
        type            zeroGradient;
    }
    wall-8
    {
        type            noSlip;
    }
    frontAndBackPlanes
    {
        type            empty;
    }
}


// ************************************************************************* //
