/*--------------------------------*- C++ -*----------------------------------*\
| =========                 |                                                 |
| \\      /  F ield         | OpenFOAM: The Open Source CFD Toolbox           |
|  \\    /   O peration     | Version:  4.0                                   |
|   \\  /    A nd           | Web:      www.OpenFOAM.org                      |
|    \\/     M anipulation  |                                                 |
\*---------------------------------------------------------------------------*/
FoamFile
{
    version     2.0;
    format      ascii;
    class       volScalarField;
    location    "34";
    object      p;
}
// * * * * * * * * * * * * * * * * * * * * * * * * * * * * * * * * * * * * * //

dimensions      [0 2 -2 0 0 0 0];

internalField   nonuniform List<scalar> 
918
(
0.616096
1.26478
0.0056787
0.615295
0.00448432
1.2324
-0.441784
0.783646
0.595946
-0.0269915
0.0359205
0.590726
1.0933
0.857236
-1.06249
0.119108
0.735708
-0.321555
0.595297
-0.0177758
0.818992
0.602408
0.605439
0.595838
0.658639
0.840721
0.973679
-0.0231772
-0.0183111
-0.0233398
0.0400616
0.0440577
0.0654061
1.11577
1.16637
1.18894
0.564643
0.400345
-0.287401
-0.37014
-0.362892
-0.48959
0.776556
0.778186
-0.113505
0.785478
0.795392
0.583568
0.595284
0.596219
0.597322
0.596269
0.597696
0.474666
-0.0369929
-0.0677608
-0.00652605
0.00453264
0.140839
0.0374954
0.0327601
0.0370961
0.0365711
0.515264
0.586647
0.583809
0.595601
0.60357
1.20354
1.17459
1.20018
1.11715
1.13197
1.07102
1.04289
0.879479
0.901036
0.84167
0.828177
-1.48476
-2.44388
-0.476266
-0.224221
-0.0250559
0.109246
0.115622
0.726424
0.725548
0.734752
0.749535
1.14638
-0.312608
-0.450431
0.595113
0.594087
0.602208
0.602567
0.59973
0.597814
-0.0113053
-0.00285583
-0.0487028
-0.0246942
-0.031406
0.806938
0.806049
0.597524
0.594123
0.610072
0.628707
0.623627
0.349193
0.660736
0.67141
0.658464
0.825945
0.823454
0.830775
0.948255
0.910812
1.01096
1.03454
-0.0407552
-0.0564902
0.126339
0.102597
0.107375
0.560626
0.552656
0.579257
0.568007
0.570419
0.316979
0.183455
0.494124
0.522166
-0.199118
-0.272664
-0.36471
-0.39409
-0.510369
0.679738
0.76521
0.765127
-0.124846
-0.0573004
-0.19087
0.027177
-0.0387607
0.573919
0.580898
0.575265
0.590894
0.585629
0.587214
0.599578
0.596649
0.598171
0.536203
0.639057
0.406489
0.369598
-0.18136
-0.0809671
-0.183584
0.0159826
0.023074
0.148824
0.172589
0.127139
0.119885
0.0262278
0.0333868
0.0288979
0.0389879
0.0360295
0.510058
0.500552
0.528663
0.535662
0.577485
0.578366
0.581227
0.579961
0.99318
1.01588
1.02409
0.997553
-3.46044
-6.51556
0.101685
0.242647
-0.0983408
-0.0828078
-0.0459235
0.0258396
-0.0143799
-0.000321706
0.102414
0.0958858
0.106357
0.108022
0.710086
0.710867
1.05144
1.04242
1.01637
0.959471
0.583294
0.585408
0.590935
0.586418
0.027195
0.00372678
0.0196763
0.794305
0.801683
0.800651
0.313166
0.229031
0.399519
0.427187
0.693777
0.678585
0.692448
0.72135
0.75515
1.04117
1.05891
1.0592
1.06708
1.11219
1.12509
1.09081
0.541068
0.550482
0.546109
0.582466
0.58014
0.581064
0.576629
0.578051
0.575337
0.0132833
-0.347321
0.589146
0.604413
0.578044
0.588997
0.751457
0.819889
0.747895
0.756664
0.758113
0.0949397
0.0337256
0.324292
0.290566
0.453006
0.487601
0.465587
0.964429
0.925803
0.975781
0.949138
0.90942
0.935983
-0.386703
-1.62751
-0.886472
0.600575
0.41098
0.499342
0.103796
0.0994327
0.104775
1.02935
1.12402
0.685998
0.871593
0.920566
0.794538
0.825787
0.884278
0.804929
0.841861
0.879004
0.859952
0.638935
0.603613
0.603234
0.885184
0.93312
0.209614
0.160185
0.105135
0.192199
0.243041
0.219829
1.08071
0.985445
1.05778
0.593723
0.594324
-0.0619969
-0.0530976
0.598484
0.598676
0.0351254
0.0608742
0.484198
-0.759991
0.189566
0.586634
0.577035
0.593893
-0.018378
0.441482
0.029188
0.136403
0.102042
0.587693
0.525769
0.487981
-0.0998784
0.106468
-0.00353823
-0.150165
0.591236
0.589391
0.5934
0.594468
0.595097
-0.11163
-0.0687957
-0.115251
-0.0343246
-0.0373438
-0.0301402
0.558775
0.575715
-0.099463
0.593519
0.595723
0.595531
0.588373
0.59424
0.592158
0.0843816
0.0671842
0.106762
0.303585
0.421981
0.729526
0.831496
0.698475
0.467008
0.21734
0.629293
0.694741
0.598649
0.75482
0.755957
0.777918
0.257679
0.0996341
0.260683
0.201356
0.584821
0.583176
0.575411
0.572406
0.588845
0.587012
0.591424
0.588328
0.591264
0.592728
0.0278947
0.00697722
-0.0147966
-0.0816181
0.397831
0.663468
0.329133
0.371533
0.224959
0.0415354
0.0396399
0.0281426
0.0228404
0.0850108
0.0820873
0.13598
0.1415
0.121318
0.0989026
0.0804903
0.0746664
0.0654872
0.58144
0.580114
0.586207
0.594559
0.535038
0.538726
0.504991
0.524901
0.510727
0.453024
0.487619
0.462941
0.0151559
-0.043626
-0.00941195
0.0949074
0.0997165
0.00546239
-0.0553675
-0.0418562
-0.0374057
-0.0449429
0.00806866
0.0113954
-0.109985
-0.224932
1.04738
0.98344
0.172228
0.580261
0.586808
0.583448
0.58841
0.591454
0.592324
0.590101
0.586677
0.576297
0.578148
0.574521
0.574999
-0.0323595
-0.178671
-0.00698978
-0.0681264
0.19074
0.69017
0.434481
0.364495
0.364144
0.589379
1.00038
0.770465
0.762986
0.801392
-0.296102
0.0842946
-0.232489
0.358236
0.180279
0.72902
0.779645
0.801079
0.747141
0.699323
-0.188554
0.597975
0.014955
0.058731
0.258031
0.151262
0.77853
0.740156
0.746538
0.764759
0.785582
0.743418
0.724089
0.7205
0.761222
0.766999
0.563375
0.33932
0.28325
0.251537
0.725718
0.60324
0.65698
0.571944
0.579629
0.582435
0.580949
0.563547
0.570848
0.566511
0.572373
0.575431
0.58483
0.585389
0.58043
0.582709
0.0283525
0.0247735
0.0486395
-0.0711491
-0.0604636
-0.129981
0.00634013
0.128641
0.0985263
0.293048
0.373708
0.103064
0.00358032
0.0315868
0.0505976
0.228951
0.287049
0.148764
0.238999
0.226024
0.209161
0.326051
0.326028
0.0581203
0.0492064
0.0451726
0.0457851
0.103192
0.176206
0.191876
0.0815726
0.0782494
0.0417751
0.0448739
0.0504873
0.0487191
0.0516882
0.0927171
0.0139824
0.077398
0.0805408
0.0838739
0.0876098
0.0761793
0.575062
0.576962
0.576768
0.584317
0.60038
0.615761
0.57628
0.557121
0.547974
0.550734
0.524255
0.53465
0.530529
0.542684
0.563565
0.57204
0.570656
0.57321
0.556594
0.558083
0.545578
0.548796
0.52666
0.507908
0.495759
0.000965803
-0.019895
0.00869905
0.00285346
0.015463
0.0315915
0.0967736
0.105227
0.0924552
0.0941363
0.085749
0.0138119
0.0238734
-0.0156025
0.0644425
-0.121309
-0.156279
-0.230779
0.951116
1.05813
0.876278
0.645936
0.658189
0.90025
0.982719
0.619759
0.786162
0.818533
0.653117
0.902234
0.5853
0.584838
0.582387
0.581906
0.583246
0.0576459
0.163102
0.163291
0.226401
0.337072
0.459395
0.369755
0.239422
0.37326
0.365402
0.684127
0.702593
0.647706
0.672936
0.670508
0.498854
0.57595
0.632241
0.585937
0.629083
0.648985
0.613573
0.640682
0.589661
0.544172
0.545504
0.492685
0.505212
0.485886
0.46936
0.574958
0.55179
0.562565
0.553196
0.573651
0.599271
0.592871
0.622161
0.632989
0.559201
0.518985
0.526302
0.557956
0.517926
0.531448
0.546145
0.286605
0.216893
0.253156
-0.0385321
0.0463211
-0.0296235
-0.061434
0.0562645
0.356063
-0.388879
-0.447176
-1.00375
0.542132
1.06545
0.733962
0.676707
0.781615
0.756964
0.757105
0.789313
0.792747
0.715879
0.733248
0.740626
0.688958
0.712365
0.74078
0.737073
0.586245
0.444748
0.434608
0.400227
0.279801
0.316504
0.517928
0.432689
0.361032
0.376868
0.536622
0.431886
0.49507
0.524002
0.444506
0.417599
0.612488
0.684199
0.673593
0.647807
0.565825
0.577043
0.606826
0.641232
0.666377
0.703116
0.57199
0.577874
0.579138
0.576616
0.573809
0.576637
0.576751
0.579389
0.580188
0.583263
0.582217
0.0309634
0.0428546
0.0357188
0.0270704
0.0501642
0.0455937
0.0946671
0.0811812
0.0661131
0.0738498
0.0452531
0.0440055
0.0484984
0.0569232
0.172292
0.173955
0.155255
0.122294
0.295923
0.43618
0.498208
0.376418
0.285883
0.312335
0.327549
0.0575203
0.0901936
0.0770876
0.115606
0.108407
0.0550512
0.0402695
0.0425273
0.0564765
0.0689837
0.0411456
0.0322896
0.0435634
0.0443504
0.042065
0.0197374
0.559608
0.553421
0.553439
0.548416
0.547665
0.559909
0.564327
0.566626
0.571954
0.573636
0.564578
0.569598
0.573058
0.0752969
0.0249458
0.036616
0.0469677
0.0324705
0.0322665
0.0332157
0.183584
0.10809
0.107043
0.0675026
-0.0605958
-0.00383021
0.551331
0.550357
0.563089
0.77621
0.626609
0.554071
0.65397
0.754744
0.32901
0.521601
0.356583
0.937238
0.829125
0.97197
0.585471
0.29191
0.450721
0.508621
0.299372
0.377409
0.379247
0.282198
0.310258
0.332198
0.434761
0.328092
0.31039
0.0609509
0.256792
0.373521
0.359693
0.484778
0.553073
0.309667
0.237382
0.205053
0.674997
0.695692
0.719811
0.68518
0.711093
0.63375
0.624513
0.643181
0.651679
0.645479
-0.728657
-0.440915
-1.35308
-0.64605
-0.206117
0.572305
0.537955
0.814728
0.702963
0.763464
0.750201
0.721924
0.685698
0.696044
0.728657
0.433716
0.537551
0.514327
0.517849
0.413109
0.358031
0.653613
0.645464
0.684974
0.707974
0.674617
0.710159
0.569807
0.569444
0.56921
0.566009
0.564131
0.566109
0.131111
0.100093
0.140475
0.121192
0.0981464
0.0819495
0.0789705
0.069255
0.0606729
0.0522142
0.0847099
0.0862779
0.215037
0.154434
0.0851657
0.113124
0.0542261
-0.0150401
-0.0338066
0.067979
0.159814
0.161177
0.466046
0.702057
0.524256
0.692042
0.559269
0.590774
0.555052
0.549079
0.579123
0.455146
0.528556
0.333836
-0.200346
-0.0809729
0.796223
0.860761
0.636399
0.505509
0.215142
0.345353
0.614743
0.541946
0.584924
0.655856
0.647038
0.0640047
0.0948913
0.423849
0.626372
0.298399
0.230846
0.247223
0.40938
0.363438
)
;

boundaryField
{
    wall-4
    {
        type            zeroGradient;
    }
    velocity-inlet-5
    {
        type            zeroGradient;
    }
    velocity-inlet-6
    {
        type            zeroGradient;
    }
    pressure-outlet-7
    {
        type            fixedValue;
        value           uniform 0;
    }
    wall-8
    {
        type            zeroGradient;
    }
    frontAndBackPlanes
    {
        type            empty;
    }
}


// ************************************************************************* //
