/*--------------------------------*- C++ -*----------------------------------*\
| =========                 |                                                 |
| \\      /  F ield         | OpenFOAM: The Open Source CFD Toolbox           |
|  \\    /   O peration     | Version:  4.0                                   |
|   \\  /    A nd           | Web:      www.OpenFOAM.org                      |
|    \\/     M anipulation  |                                                 |
\*---------------------------------------------------------------------------*/
FoamFile
{
    version     2.0;
    format      ascii;
    class       surfaceScalarField;
    location    "34";
    object      phi;
}
// * * * * * * * * * * * * * * * * * * * * * * * * * * * * * * * * * * * * * //

dimensions      [0 3 -1 0 0 0 0];

internalField   nonuniform List<scalar> 
1300
(
3.75095
5.62643
-3.24131
3.75095
-5.40722
5.62643
-4.4737
4.4737
-0.983478
0.983478
1.87648
1.87447
-3.07003
3.07003
-2.46701
2.46701
-2.55318
2.55318
-5.24637
5.24637
-5.06797
5.06797
4.65994
-4.65994
-5.83496
5.83496
-1.35463
1.35463
-3.9028
3.9028
3.16879
-3.16879
-2.2677
2.2677
-0.271036
0.271036
-0.553171
4.30412
3.19778
3.19778
-2.04165
2.04165
-4.86327
4.86327
6.21752
-6.21752
4.63467
-4.63467
-1.39336
-2.52547
0.66654
-10.2536
-4.74068
-4.74068
-8.44023
8.44023
-2.8138
2.81263
2.94392
-2.94392
-1.86186
1.86186
-4.39585
-0.0778482
-4.39585
4.47517
-0.00147736
4.47517
-1.081
0.0975187
-1.081
3.95966
-3.95966
0.847495
0.135983
0.847495
3.06493
-3.06493
-1.87714
3.75362
1.87381
-1.87177
6.1759
-1.87918
3.75365
-5.91692
5.91692
-3.2716
0.201574
-3.2716
2.88441
0.185612
2.88441
-6.70198
6.70198
-2.50069
0.0336787
-2.50069
2.47835
-0.0113398
2.47835
2.86454
-2.86454
-2.65405
0.100871
-2.65405
2.44408
0.109097
2.44408
0.353686
5.27274
-5.98012
8.79275
-5.27274
0.0263711
5.20823
0.0381425
5.20823
-5.10564
0.0376737
-5.10564
5.01288
0.0550881
5.01288
4.73693
-0.0769915
4.73693
-4.78419
0.12425
-4.78419
-3.53598
-5.37137
-6.11117
0.276205
-6.11117
-1.35439
-0.000244847
-1.35439
1.3126
0.0420271
1.3126
-3.58595
3.58595
-4.26391
0.361104
-4.26391
3.12265
0.0461469
3.12265
1.86902
1.88193
5.61998
-5.61998
2.45118
-2.31703
0.0493308
-2.31703
-2.26844
-2.36623
2.26844
-0.000747468
-0.533319
0.262283
-0.533319
3.16003
0.0377529
3.16003
2.28777
0.156314
-2.28777
0.246123
3.20307
-3.20307
1.39931
0.642338
1.39931
-5.56871
5.56871
4.95321
0.059675
-4.95321
0.0899391
6.15615
0.0613732
6.15615
-6.1999
-0.0176265
-6.1999
1.77079
-4.29626
-3.14733
5.35799
0.476975
-5.35799
0.61731
2.91422
0.0297007
2.91422
-2.91948
2.91948
-2.98345
0.0395309
-2.98345
-2.2457
0.383842
-2.2457
1.57714
0.284717
1.57714
-4.26941
-0.12644
-4.26941
-4.39151
0.127605
4.39151
0.0836606
1.15694
-1.15694
-1.19632
0.115326
-1.19632
-4.11028
-0.159124
4.11028
-0.15062
-3.80651
-0.153151
-3.80651
-3.02368
0.0402308
3.02368
0.0412464
3.11307
0.0469632
-3.11307
0.0481383
-1.8709
3.75283
-1.88005
3.75387
-5.54198
-0.374939
-5.54198
6.2257
-0.308788
6.2257
3.60482
0.297981
-3.60482
0.333221
2.74281
0.141604
2.74281
-6.67494
-0.0270398
-6.67494
6.67411
0.0278655
6.67411
2.60854
0.134267
-2.60854
0.107852
2.41439
0.0639648
2.41439
2.87967
-0.0151325
2.87967
-2.86432
-0.00021964
-2.86432
2.79906
-2.79906
2.73076
0.068296
-2.73076
0.0767106
-11.1325
11.1149
-0.0349224
-11.0976
5.17331
5.17331
4.15275
0.584181
4.15275
-5.00054
0.216349
-5.00054
2.64163
-5.78896
4.53573
-8.07171
5.47745
-15.7311
3.87861
-9.24998
6.4917
-6.4917
6.32832
0.163385
-6.32832
0.217146
-1.37381
0.0194217
-1.37381
-2.98664
-0.599316
-2.98664
4.23518
-0.649226
4.23518
-3.02794
3.02794
-3.07678
0.0488352
3.07678
0.0458675
2.35781
0.0565813
-2.35781
0.0407796
0.695784
0.151711
-0.695784
0.162465
3.38396
-0.180888
3.38396
-3.02653
-0.176547
-3.02653
-1.38711
0.0133035
1.38711
0.0121993
-5.81598
0.247264
-5.81598
-11.191
0.0933629
-11.1528
-6.10653
-6.10653
2.33369
11.1264
-2.88713
0.022813
2.88713
0.0270856
2.9747
0.0532375
-2.9747
0.0552208
-2.86119
0.0621271
2.86119
0.0582979
-2.62993
0.384231
-2.62993
-1.16965
1.16965
-1.34524
0.175584
1.34524
0.231905
1.39077
-0.233836
1.39077
1.26718
0.0454204
-1.26718
0.0708602
-3.6805
-0.126014
-3.6805
6.45348
-0.227777
6.45348
-2.92934
-0.0971856
2.92934
-0.0496679
-0.0334582
11.1483
-5.13985
0.0342058
5.13985
-11.2097
11.2439
-3.25856
0.628625
3.25856
0.894191
5.29055
0.27816
-5.29055
0.290015
6.61181
0.0622954
-6.61181
0.120113
-2.50899
-0.477642
-2.50899
-4.97447
-0.567507
4.97447
-0.739295
-11.4728
-0.204023
11.6769
-11.4177
6.02
0.13615
-6.02
11.3801
-1.09263
-0.0643035
1.09263
0.0770231
1.67983
-0.289058
1.67983
3.56633
-0.182371
-3.56633
-0.114167
-6.6012
-0.0737341
6.6012
-0.14772
-2.07135
-0.437647
2.07135
-0.391518
-4.26686
4.30462
1.90903
-1.99137
-2.30489
-4.3576
1.85163
1.9012
4.30282
-10.2007
-5.53036
-9.58342
7.26204
-6.97203
-9.27567
9.19868
7.59286
-7.74601
-5.78718
5.83305
6.48243
-6.44119
1.87868
1.87494
7.83904
-7.63746
-15.6817
15.3068
7.46318
-7.4295
15.8031
-15.8301
-17.8118
17.8741
-5.72465
5.82552
-6.72432
6.7241
-6.94029
6.89062
-3.36756
-4.70415
13.06
-12.7838
7.79708
-7.74775
-8.47826
8.83937
3.38195
0.92267
3.42891
-1.88237
3.76106
-1.87127
3.78031
3.15516
-6.52272
2.63379
-4.93869
3.51271
4.28437
-3.51196
-0.845633
-5.91811
5.94781
-5.82366
5.88196
8.98196
-9.05981
-1.88519
3.76013
-1.86868
3.76987
-3.42659
-2.36059
3.38044
0.922378
7.78143
5.27854
-8.25841
-1.32501
-7.88844
7.70607
-8.14726
7.97071
-0.437098
5.81697
-5.37987
4.42617
-1.55273
7.3697
5.70931
5.92566
5.86573
-5.58757
1.1063
-6.48617
-6.39623
-2.53855
2.65388
2.47032
-2.33434
5.96852
1.62434
5.8179
-5.59211
-2.1539
-5.71812
3.82197
2.01107
3.87081
4.07616
2.40627
4.11639
3.03078
-3.03551
0.00473465
-3.05628
6.08705
0.72462
-5.41687
-4.49449
4.9027
2.93634
5.08831
-5.45179
-2.18567
-5.11857
-9.5504
-6.13129
-10.1179
10.1267
5.18007
9.81789
-11.9914
11.8437
4.75488
2.7083
4.74354
-4.91347
-2.51603
-4.80562
11.6374
-2.54778
-9.08958
-10.3085
-7.50331
10.2806
5.52247
10.9135
6.96058
11.0336
4.41776
7.2196
-9.94023
2.43692
-3.87072
-1.85393
-3.79401
3.69966
2.12586
3.80876
-4.21202
-2.5123
-4.18921
-4.28566
-2.65463
4.30079
2.42331
-4.39814
-3.74911
4.49533
2.39529
4.93967
-10.47
4.31031
-9.01446
-9.17775
-3.60601
-8.96061
3.79909
3.14545
-6.94454
-2.72363
8.50795
-4.22358
7.66232
-4.63296
-3.11479
-4.59218
-6.76032
-1.71794
-6.63272
-8.85584
8.37819
-9.19148
8.54225
12.6527
-5.72254
-6.93021
-3.96834
-2.47285
3.9202
-0.491288
-3.71084
3.71558
0.0502166
3.83053
4.7532
4.26191
-3.88808
-1.93558
-3.83286
3.83356
2.0484
3.89569
6.75763
2.22433
6.75615
-6.48663
-2.57318
-6.61307
9.04027
-8.65643
2.89402
-2.88071
5.30742
2.66329
-5.12653
-2.76191
6.20438
-3.15803
-3.04635
-12.2104
10.5755
1.63493
-4.84072
-0.414549
-0.143513
-5.49475
-3.78092
5.3705
0.555154
11.1306
7.34973
-5.5133
5.76056
6.16356
6.22324
-0.172995
5.77682
-5.14819
5.32027
-2.39529
-2.92499
5.32948
-5.48861
-1.28359
-5.29253
4.00894
0.32929
1.69861
-1.43633
-2.00264
-0.535908
-1.93178
1.47498
0.995343
1.62669
0.969117
1.68476
-2.9576
0.552059
2.40554
-1.98848
-1.78228
-3.69885
-1.05994
4.75879
5.64256
2.06351
-5.52839
-0.189731
2.68982
-2.64779
-0.773757
-2.92509
2.14173
-2.91549
-3.65503
-1.88744
5.54247
-3.37135
-0.461511
3.31811
0.552701
-3.82482
-2.09329
3.78528
0.331104
-3.1243
6.18854
-3.06424
-5.05989
2.52916
3.55789
4.54023
-4.78898
2.44592
2.34306
-1.23109
4.19528
0.893025
4.33689
-6.69141
4.50573
5.72718
3.11218
-6.02516
0.906592
-5.78481
8.43425
-7.24954
-1.18471
4.08685
4.3474
7.17597
5.47677
-5.75071
12.9267
-1.16743
-6.08211
6.95224
-3.84006
4.75024
-8.5903
-10.227
4.1449
-9.25694
11.009
-1.75209
-3.62172
-8.36973
12.8787
-1.22039
-11.6583
8.5975
-4.18632
-4.25441
8.44072
-6.73409
6.77043
-1.96289
-4.80754
-10.1378
-5.69238
10.2115
1.63223
-9.82868
12.2656
-2.60908
3.97397
0.769566
4.03794
3.23557
-5.37627
2.14071
3.49852
-5.46141
2.07133
-7.44761
-6.90882
12.3855
-5.47669
-10.5148
-9.59758
-0.917247
2.49824
9.76736
-9.45881
7.36117
2.09765
3.31002
0.585664
-3.37832
-0.415687
0.259728
4.53677
-4.7965
4.06849
4.2248
3.36386
1.17291
3.83957
2.10824
-3.86666
-0.322547
-4.15437
1.49974
-1.73105
-3.66582
5.16555
-4.06624
0.400421
-2.7328
-3.51019
6.24299
-4.58673
3.03803
3.15051
5.08643
-4.9137
1.40351
-2.40375
-2.50994
2.66273
-4.39379
1.95819
3.20736
4.35348
0.604372
6.20931
6.1762
-9.35477
0.340306
11.4547
-10.1297
2.51046
8.52318
-9.87163
0.274043
-8.68656
1.39822
-5.6218
-5.54633
5.07482
-6.79275
-3.51548
6.12769
0.628457
-6.21135
-0.421367
-6.03056
-2.82527
-6.46821
-3.05581
-6.13567
-8.80651
-1.64321
-7.1633
6.73498
-6.68232
-3.43559
7.42161
1.12064
-7.3885
7.32419
-7.46827
7.17921
0.0949218
3.62066
4.35683
1.88398
-2.38957
4.27355
-5.04805
7.27239
-8.52624
3.47819
4.00321
-6.57638
-4.52304
5.03128
4.00899
5.316
8.9117
-10.4141
1.5024
-10.7416
12.0584
-1.31681
-16.4952
5.75365
-7.58354
2.63398
0.260041
2.6534
0.647909
2.45058
-3.09849
-2.23281
-2.22061
-2.34946
-3.43667
5.78613
1.1513
-3.44593
2.29463
-3.49853
4.64983
-0.0641673
-3.38176
5.29951
-2.84892
5.55955
-3.5627
1.99685
3.35546
5.73122
-2.37576
4.35879
-1.6955
1.83979
-4.21555
-1.59688
-2.9676
5.09346
-3.27539
3.67581
-0.296959
3.97277
-4.09101
0.932981
-0.727147
3.49766
3.74378
4.28044
-3.10753
2.98147
-4.67697
-1.23409
-4.0726
-0.865237
-0.293144
-3.75953
4.05268
6.03396
-6.3271
-5.22951
9.54268
-4.31317
7.72489
-5.39251
-2.33238
-4.24643
-4.41
3.8622
1.91462
9.63951
0.233272
-5.62578
-4.91492
-4.02073
3.2051
2.11517
-1.91007
3.545
2.05358
-0.354972
0.563606
1.06308
1.86877
-1.30517
0.21078
1.658
-1.22555
1.97367
0.716152
-2.01909
0.0873041
-1.35397
3.4957
1.05157
-2.04691
0.741743
1.07445
-3.46973
4.88032
-2.49234
-2.38799
5.95477
1.14888
-3.64121
4.14365
-3.81436
2.3335
-3.39343
-1.30772
-5.12208
-3.49774
-2.56789
4.86252
-3.21824
5.28176
1.20749
-5.09203
6.29951
-3.56616
1.67872
-3.08587
3.80203
-1.08366
-2.00221
2.81399
2.72849
-2.94217
0.0170717
-0.128178
2.33818
-2.46636
-0.577308
-2.56579
-4.57273
4.90384
-2.10709
4.55302
2.16646
-1.91459
6.46761
1.81123
-3.72582
-3.24866
-3.71017
-1.38277
3.15747
-0.564632
-4.24099
-5.37217
4.10672
0.230167
-6.82715
7.63906
-0.811918
-3.8908
-0.61493
4.70178
-5.93761
0.476193
-3.86628
3.77279
4.66581
4.89598
-11.4559
-0.202349
-6.27584
1.16478
-7.44063
5.51218
-3.6214
7.76631
-10.4259
6.99032
-9.30527
6.5816
-0.85903
6.25686
-4.11615
2.83272
-8.5251
-6.89287
5.42843
-2.72013
6.19799
-3.11152
9.30951
-5.7206
5.15912
4.15039
-0.664264
-3.92792
-5.32572
4.66145
-0.166601
3.87134
4.9709
-2.86267
4.64836
2.25773
-4.66149
-2.13605
-6.50175
1.84027
-3.35124
-1.91618
3.75645
3.17025
3.75591
1.2465
-3.34023
7.33774
-8.25499
-1.86105
-3.68528
5.402
-0.740546
3.33459
-7.01986
-2.28721
4.8871
-0.834844
-4.05226
0.835435
-4.35092
1.64505
-5.99596
5.14771
-5.56907
2.18736
-9.7709
-5.20114
-5.12411
-2.23496
-5.2333
-7.6107
5.37574
-1.85706
5.46714
-8.57579
7.74094
-3.48262
8.85836
-5.43407
-1.03414
5.82559
1.35362
10.212
0.177805
-4.70084
-1.89158
3.95125
-2.05967
1.31352
-3.58173
0.36952
2.4863
3.46847
-6.49523
-0.0811489
-4.78199
-3.92625
7.93525
5.61642
11.6504
1.23628
9.11613
-1.18088
10.3524
4.13512
4.36702
-3.03766
4.54006
1.01502
4.49321
-0.835508
2.83236
1.81789
1.81765
0.830146
2.32542
1.41836
3.2584
0.159909
-2.0607
4.63312
-8.65385
-0.992664
-8.06967
1.12901
5.82545
-4.69644
3.08788
-0.972704
1.02821
0.126906
-1.64346
1.51655
-2.79808
-1.99843
-0.340435
-1.61792
2.35966
1.87778
-2.01923
-0.778852
0.337668
-3.83541
3.05577
-3.03869
-0.310207
5.98931
-2.75362
0.28726
-1.07489
-2.27853
-2.81444
2.72713
6.17649
0.291118
3.11225
5.19495
3.10166
0.238992
3.9087
-5.66079
-3.5389
-5.86314
-0.350958
4.35082
1.78574
7.98161
5.93614
5.19559
-1.82427
-10.0793
6.55774
-2.01769
5.24093
-1.18867
-4.80729
4.95784
2.31455
-5.5863
0.0172217
-4.79007
-6.80776
-0.555013
8.29595
-9.65696
8.62283
5.79755
1.36575
-4.40173
-0.722385
4.22614
0.14088
10.4933
-1.18108
-6.74214
7.92322
-4.64437
3.6517
0.791411
2.75359
2.30796
1.33526
-5.40688
-10.1033
-1.91141
-1.55832
-4.2994
0.459393
-2.33717
6.2723
-2.6206
3.93992
5.30262
6.33083
-2.14945
-4.17766
6.46262
-2.5227
3.80814
)
;

boundaryField
{
    wall-4
    {
        type            calculated;
        value           uniform 0;
    }
    velocity-inlet-5
    {
        type            calculated;
        value           uniform -3.75095;
    }
    velocity-inlet-6
    {
        type            calculated;
        value           uniform -5.62643;
    }
    pressure-outlet-7
    {
        type            calculated;
        value           nonuniform List<scalar> 8(3.24131 5.40722 3.91883 9.5871 8.90735 4.91812 7.17736 9.35606);
    }
    wall-8
    {
        type            calculated;
        value           uniform 0;
    }
    frontAndBackPlanes
    {
        type            empty;
        value           nonuniform 0();
    }
}


// ************************************************************************* //
