/*--------------------------------*- C++ -*----------------------------------*\
| =========                 |                                                 |
| \\      /  F ield         | OpenFOAM: The Open Source CFD Toolbox           |
|  \\    /   O peration     | Version:  4.0                                   |
|   \\  /    A nd           | Web:      www.OpenFOAM.org                      |
|    \\/     M anipulation  |                                                 |
\*---------------------------------------------------------------------------*/
FoamFile
{
    version     2.0;
    format      ascii;
    class       volVectorField;
    location    "34";
    object      U;
}
// * * * * * * * * * * * * * * * * * * * * * * * * * * * * * * * * * * * * * //

dimensions      [0 1 -1 0 0 0 0];

internalField   nonuniform List<vector> 
918
(
(0.985094 -0.000544311 0)
(0.00478434 2.96626 0)
(-0.0392635 0.852754 0)
(0.979827 0.00241076 0)
(-0.0771657 1.44643 -1.40822e-20)
(-0.00704885 2.94891 -1.14586e-18)
(0.829411 1.18948 1.59939e-19)
(0.322263 0.154485 -6.97601e-21)
(0.999905 -0.000306679 0)
(0.0406504 0.87463 0)
(0.00379291 0.688033 0)
(0.730974 -0.0102508 0)
(0.0115205 2.93011 0)
(0.00309635 2.79492 0)
(-0.0198464 3.153 3.20016e-19)
(-0.03279 1.82191 -4.29656e-20)
(0.400394 0.0518067 4.59707e-19)
(0.176521 1.21217 1.04849e-19)
(0.961995 0.00389473 0)
(-0.00548987 0.632228 0)
(0.0787101 0.188387 -3.30524e-19)
(1.00217 -0.00520375 0)
(1.00076 -0.0101613 0)
(0.975963 -0.00653389 0)
(0.577598 -0.0290924 0)
(0.0183331 2.63634 0)
(-0.0148364 2.91015 4.06113e-19)
(-0.0485275 0.800287 0)
(-0.161531 1.03977 0)
(-0.0424975 0.813885 0)
(-0.247513 2.54882 0)
(-0.13095 1.64211 1.09132e-20)
(-0.114173 1.46009 0)
(-0.0204467 2.98751 -4.14002e-23)
(-0.0169832 3.0054 9.10218e-19)
(0.00201636 3.00015 0)
(0.870446 -0.00883257 0)
(0.436673 0.971957 9.23332e-20)
(0.805364 1.20493 -1.53275e-19)
(0.954303 1.04273 1.8426e-19)
(0.675939 1.30132 -3.6633e-20)
(0.673664 1.28944 2.16422e-19)
(0.366108 0.239126 6.80184e-21)
(0.336113 0.127269 0)
(1.13772 0.576499 0)
(0.334122 0.23467 3.10981e-20)
(0.286533 0.161222 -3.22901e-20)
(0.919499 -0.00727293 0)
(1.00028 0.000144372 0)
(0.999915 0.000338142 0)
(1.00352 -0.00768423 0)
(1.00096 -0.000948166 0)
(1.00019 2.14517e-05 0)
(0.0656002 1.78207 -3.68579e-19)
(0.0268585 1.04003 0)
(0.0704796 0.935517 0)
(0.0211712 0.989681 0)
(0.0265725 0.811679 0)
(0.021148 1.98988 0)
(-0.00054754 0.830029 0)
(0.0330728 0.698246 0)
(-0.0010225 0.831671 0)
(0.00320063 0.69219 0)
(0.836405 -0.0141567 0)
(0.850339 0.0272619 0)
(0.766009 -0.000859461 0)
(0.824569 0.0360845 0)
(0.698337 -0.013085 0)
(0.0153332 3.00066 4.17123e-19)
(0.0117022 3.00838 0)
(0.00650284 3.00256 0)
(0.0141584 2.99722 4.6965e-24)
(0.00835806 2.95851 -6.30421e-19)
(0.0152004 2.98184 0)
(0.0112312 2.90366 0)
(0.0255328 2.93006 9.39457e-25)
(0.00493516 2.82506 0)
(0.0319892 2.91583 0)
(-0.00529938 2.74567 0)
(0.304274 3.54652 0)
(-0.14582 3.62343 0)
(0.135676 3.24544 -2.95389e-19)
(-0.0103829 2.98498 0)
(-0.269854 2.37563 0)
(-0.0623216 1.97776 4.23646e-20)
(-0.00751716 1.8918 -4.05983e-20)
(0.494534 0.148213 -1.59173e-19)
(0.395449 0.0344058 -1.53647e-19)
(0.479427 0.169181 -4.78376e-19)
(0.383838 0.0751396 -3.15874e-19)
(0.185545 0.925408 0)
(0.25019 1.34721 -1.31303e-19)
(0.361508 1.30105 2.22925e-19)
(0.987372 0.00824403 0)
(0.941296 0.0054884 0)
(1.00031 0.000430301 0)
(1.00326 0.00949434 0)
(1.00287 0.00785711 -1.22398e-18)
(0.991774 0.00988352 9.34619e-19)
(0.00368009 0.775783 0)
(-0.0060592 0.639087 0)
(-0.0140235 0.824515 0)
(-0.0157392 0.77101 0)
(0.0145999 0.625128 0)
(0.130286 0.197208 1.02474e-19)
(0.183449 0.178241 0)
(0.99335 -0.00826147 0)
(0.954449 -0.00616371 0)
(0.777888 0.0441634 0)
(0.716339 0.05557 0)
(0.655533 -0.023824 0)
(0.950772 -0.00739593 0)
(0.631076 0.0722955 0)
(0.457437 -0.00786818 6.66632e-19)
(-0.0360845 2.86508 3.08497e-19)
(0.0423348 2.90936 0)
(0.0553507 2.88435 0)
(-0.00398086 2.69811 0)
(-0.0137559 2.98493 3.85048e-19)
(-0.0181973 2.895 0)
(-0.0159797 2.98801 -1.19477e-18)
(-0.0131409 2.92537 4.10055e-19)
(-0.14627 1.13092 0)
(-0.203484 1.32625 0)
(-0.107525 1.91379 -1.39559e-21)
(-0.110142 1.80384 0)
(-0.0725503 1.66563 0)
(0.93779 -0.00768224 0)
(0.856603 -0.0080154 0)
(0.86289 0.00618167 0)
(0.948949 -0.00785785 0)
(0.883486 -0.00739911 0)
(0.545407 1.16655 -1.17091e-19)
(0.595377 1.20565 0)
(0.404267 0.924527 1.65398e-20)
(0.344234 0.779894 0)
(0.917152 1.07924 -4.82047e-20)
(1.02608 0.884592 9.64287e-20)
(0.36343 1.39091 0)
(0.530301 1.36421 0)
(0.534065 1.31878 0)
(0.117185 0.207443 -1.33865e-19)
(0.40281 0.227164 0)
(0.369256 0.114469 8.89199e-20)
(1.00107 0.93761 0)
(1.07078 0.789396 0)
(1.09314 0.730965 -6.8495e-20)
(1.11681 0.631332 0)
(1.15877 0.413148 2.36905e-20)
(0.957497 -0.00855047 0)
(0.962267 -0.0102926 0)
(0.901848 -0.00735543 0)
(0.984324 -0.00920193 0)
(0.974781 -0.00937195 0)
(0.937395 -0.00601454 0)
(1.00017 0.00215196 0)
(1.00087 0.00141886 0)
(0.999871 0.000906618 0)
(0.0266124 2.05183 2.01116e-19)
(0.0983368 1.73192 0)
(0.0113591 2.16101 3.23004e-19)
(0.0461642 1.84495 -2.77378e-19)
(0.100374 1.22043 -8.52843e-20)
(0.040798 1.10537 0)
(0.11661 1.07635 0)
(0.0132645 0.942162 0)
(0.0185699 0.769025 0)
(-0.00519816 2.19289 -7.92888e-22)
(0.0314586 1.98308 0)
(-0.00612314 2.16866 -4.30738e-20)
(0.0298512 1.9917 8.19054e-20)
(0.0191626 0.896779 0)
(0.0115312 0.857256 0)
(0.0267705 0.734254 0)
(0.000746369 0.822136 0)
(-0.0181594 0.667728 0)
(0.934051 0.0087671 0)
(0.840741 -0.0148661 0)
(0.924646 -0.00135074 0)
(0.838176 -0.0120728 0)
(0.811541 0.00196498 0)
(0.902215 0.0188771 0)
(0.879784 0.0230324 0)
(0.788257 0.00100894 0)
(0.00405833 3.06436 -3.70727e-21)
(0.0167201 3.05758 0)
(0.0152567 2.96899 0)
(0.00889396 2.87631 0)
(0.962725 3.98342 0)
(1.30714 3.24658 4.45801e-19)
(0.0693049 3.07654 0)
(-0.0251106 2.9077 0)
(-0.0941072 1.50752 0)
(-0.182512 2.20651 0)
(-0.245743 1.91659 0)
(-0.216292 2.52507 1.07049e-20)
(-0.229824 2.48393 0)
(-0.254204 2.49362 0)
(0.0211705 1.96957 6.30311e-22)
(-0.0196418 2.07441 3.4694e-20)
(-0.0351062 2.02605 4.13291e-20)
(0.00405296 1.93965 0)
(0.520192 0.121746 2.38518e-19)
(0.408718 0.0129496 -2.34384e-19)
(0.271581 1.56205 0)
(0.24302 0.713069 -1.31545e-19)
(0.176506 1.65411 -4.3794e-19)
(0.201489 1.18274 4.38939e-19)
(0.90176 0.00590072 0)
(0.96738 0.0106698 0)
(0.974401 0.0106518 0)
(0.923218 0.00592452 0)
(-0.00159032 0.818229 0)
(0.00728224 0.792632 0)
(0.00456526 0.64581 0)
(0.286248 0.231164 2.86176e-19)
(0.236279 0.210196 -3.38626e-19)
(0.24361 0.174893 0)
(1.07282 0.0823796 1.40495e-20)
(1.05024 0.0364598 0)
(0.993241 0.0368181 0)
(0.891365 -0.00893053 0)
(0.544165 0.0906558 0)
(0.570026 0.0695986 -1.06855e-18)
(0.428062 0.00172786 4.01641e-19)
(0.00915619 2.98146 3.25459e-19)
(-0.0329032 2.86685 1.8714e-20)
(0.0019522 3.04965 -7.82542e-21)
(0.0208073 3.04317 2.88483e-19)
(-0.0153071 2.99629 1.34426e-20)
(-0.0128012 2.94948 -5.41551e-23)
(-0.0175749 3.01149 -2.46371e-19)
(0.0142543 3.02292 1.77362e-19)
(0.00675139 3.0368 -2.88294e-19)
(0.93197 -0.00271284 0)
(0.938407 -0.00356018 0)
(0.843009 -0.00735126 0)
(0.9565 0.0114446 0)
(0.942932 0.0127337 0)
(0.881347 0.00557799 0)
(0.918358 0.0154471 0)
(0.926595 0.0144983 0)
(0.838592 0.00370231 0)
(0.759688 1.43253 9.26695e-21)
(0.802549 1.52438 0)
(0.229464 0.363339 3.40124e-20)
(0.240794 0.708363 2.72142e-19)
(0.290652 0.767604 -1.61283e-19)
(0.306134 0.568397 3.13656e-19)
(0.325656 0.803408 6.95896e-19)
(0.129761 0.236851 1.57815e-19)
(0.451231 0.193432 3.34922e-19)
(0.425911 0.213819 8.67176e-20)
(0.381965 0.0955722 1.66935e-19)
(1.14979 0.469827 -8.96505e-21)
(1.15503 0.26663 -1.23123e-20)
(0.00368094 2.19956 1.29259e-19)
(0.0479753 1.91465 0)
(0.959825 0.0278471 0)
(0.936318 0.0109359 0)
(0.859443 -0.0184766 0)
(0.0113663 3.07449 0)
(0.0207192 2.94399 5.28157e-19)
(0.0171565 2.95635 0)
(0.00655404 2.85055 -5.2644e-19)
(0.0056592 3.09144 1.25238e-19)
(0.0057585 3.08163 0)
(0.887697 1.82836 -6.45439e-20)
(1.27194 2.3799 1.04754e-19)
(0.868013 1.93263 -4.64485e-19)
(0.0202643 2.98297 -2.85702e-19)
(0.0361745 3.00332 0)
(-0.0332662 2.88027 0)
(-0.0115912 2.14411 -2.49074e-21)
(-0.0163941 2.10976 -7.14625e-20)
(0.0229539 1.98826 -7.63658e-22)
(0.276855 1.37885 4.29739e-19)
(0.195313 0.508538 -2.92537e-19)
(0.0536673 1.98108 3.35028e-19)
(0.154026 1.87401 -3.99746e-19)
(0.147226 1.45921 4.02981e-20)
(0.00311624 3.11885 -7.78802e-19)
(0.0110278 3.11914 8.84526e-19)
(-0.00955083 2.98077 3.55638e-19)
(-0.00476707 2.9779 -3.37826e-19)
(-0.0215173 2.88144 -3.62404e-19)
(0.0076161 3.09954 -9.34935e-19)
(0.00105285 3.10451 9.47639e-19)
(0.285288 0.724429 0)
(0.24882 0.720597 -5.61176e-19)
(0.122068 0.245359 2.49234e-19)
(0.343789 0.921978 4.69007e-19)
(0.176919 0.273169 -7.23489e-19)
(1.15117 0.175342 4.05376e-20)
(1.15757 0.316276 0)
(1.13505 0.125654 -1.90342e-20)
(-0.00753313 2.20124 -1.06776e-21)
(-0.00501152 2.20723 0)
(0.0360257 1.95957 0)
(0.348856 1.27944 -1.54763e-19)
(0.369367 1.1138 -3.34127e-19)
(0.184383 0.35953 5.95355e-19)
(1.00553 -0.0111909 0)
(1.0075 -0.00744735 2.27451e-19)
(-0.0324 1.18395 0)
(-0.025593 1.02274 0)
(1.00199 0.00343615 7.96809e-22)
(1.00378 0.0100148 4.59936e-19)
(-0.194814 2.52357 -1.43567e-20)
(-0.163066 2.51695 0)
(0.035262 3.17931 2.06948e-19)
(0.387884 3.48269 0)
(1.15039 0.645116 -3.91699e-20)
(1.0132 0.013602 -7.59236e-22)
(1.02116 -0.0107699 0)
(1.00175 9.98192e-05 2.55512e-23)
(0.0967087 1.3452 0)
(0.155938 2.57868 0)
(0.0236233 1.30235 0)
(-0.000633319 2.62606 4.33082e-20)
(-0.0225961 2.57357 3.5694e-20)
(1.00428 0.0280999 1.00512e-21)
(1.06138 0.00295409 0)
(1.09271 0.0200825 0)
(-0.125246 2.07575 0)
(-0.0337098 2.55885 0)
(0.0349491 1.19239 0)
(0.297063 1.45692 -4.5797e-20)
(1.01123 -0.00990607 0)
(1.00939 -0.0153654 0)
(1.00239 0.000610929 2.88851e-19)
(1.00538 -0.00481523 -3.42952e-19)
(1.0012 -0.00106473 0)
(0.031482 1.75878 0)
(0.0196401 1.27368 0)
(-0.0538993 1.5714 0)
(0.0244883 1.15911 0)
(0.0457759 1.04576 0)
(0.0159152 0.997153 0)
(1.03403 -0.00712611 0)
(1.02114 0.0161616 -3.73362e-22)
(0.805343 1.25038 7.63097e-20)
(1.00224 0.000372196 -2.88307e-19)
(1.00402 0.00532036 3.42542e-19)
(1.00118 0.00211793 0)
(1.01349 0.0105665 2.86082e-19)
(1.00857 0.00866314 -3.46148e-19)
(1.00931 0.0156633 0)
(-0.0865221 2.57144 0)
(-0.143213 2.55138 3.71225e-20)
(-0.0895863 2.5397 -3.0728e-20)
(1.21655 0.246576 3.01115e-19)
(1.15033 0.0738142 0)
(0.0459203 3.0763 -4.36259e-19)
(0.0654873 2.85192 -3.10628e-20)
(0.143521 3.19428 6.66292e-19)
(0.140766 3.22352 -9.60852e-20)
(0.13273 3.23633 0)
(0.0195818 3.13748 1.16154e-19)
(0.0766397 3.16061 4.25591e-19)
(0.0686366 3.18594 -2.20971e-19)
(0.0239211 3.1289 0)
(0.665348 0.301241 0)
(0.576726 0.349526 0)
(1.09888 0.668956 1.00628e-19)
(1.12757 0.80424 -1.08907e-19)
(1.1653 0.555962 0)
(1.21108 0.505524 0)
(1.01638 0.0136598 -5.40457e-19)
(1.01516 0.0148318 6.77449e-19)
(1.02505 -0.0102756 0)
(1.02301 -0.0125257 0)
(1.00642 0.00256476 0)
(1.01012 0.00356411 0)
(1.0046 0.00187603 0)
(1.00992 0.00603182 0)
(1.00801 0.00632522 0)
(1.00441 0.00435936 0)
(0.0865381 1.34045 0)
(0.0792977 1.31196 0)
(0.115079 1.3759 0)
(0.132068 1.39532 0)
(0.147379 2.60175 0)
(0.188968 2.66262 -2.04068e-19)
(0.0981514 2.66005 0)
(0.0926194 2.65962 1.0572e-19)
(0.0437271 2.68527 -1.03068e-19)
(0.036061 1.30436 0)
(-0.00562729 1.22663 0)
(0.0263727 1.3187 0)
(0.0451821 1.26611 0)
(-0.0135194 1.98718 -2.74527e-20)
(-0.0283852 2.60369 3.06827e-20)
(-0.017184 2.6668 4.4059e-20)
(-0.0204634 2.67718 0)
(-0.0333222 2.60738 -8.15155e-20)
(-0.0318561 2.6003 -5.07803e-20)
(-0.000578916 1.9891 2.14599e-20)
(-0.025104 2.41253 -3.97012e-20)
(-0.0239879 2.42925 -5.23737e-20)
(1.01319 0.0351693 5.42151e-19)
(1.00851 0.0178165 -6.75234e-19)
(1.00521 0.0413768 -5.46077e-19)
(0.98539 0.0219158 6.93099e-19)
(1.06238 0.0070131 0)
(1.04774 -0.00938849 0)
(1.09085 0.0301877 0)
(1.07178 0.0106622 0)
(1.06947 -0.00109865 0)
(1.13097 0.0725286 0)
(1.10553 0.0380105 0)
(1.1094 0.0249028 0)
(-0.186758 2.52152 -1.0309e-21)
(-0.0902728 2.31394 0)
(-0.191104 2.44732 0)
(-0.0595008 2.5794 2.19202e-20)
(-0.0422042 2.58928 -9.99068e-22)
(0.0714217 1.80163 -1.18478e-20)
(0.0631183 1.68283 1.19566e-20)
(0.0723604 1.40727 0)
(0.0687235 1.40257 0)
(0.0895414 1.38866 0)
(0.0417178 1.21497 0)
(0.0163014 1.05852 0)
(0.377156 1.47302 6.82607e-20)
(0.421091 1.47886 4.48666e-20)
(0.59133 2.4427 -1.04986e-19)
(0.406115 2.54131 3.10058e-19)
(0.350354 2.07587 3.70625e-20)
(1.02104 -0.00825264 0)
(1.01543 -0.00993969 0)
(1.01492 -0.0161033 0)
(1.00739 -0.00131078 0)
(1.00493 -0.00107289 0)
(1.00771 -0.00466875 0)
(1.00917 -0.00381541 0)
(1.01406 -0.00456539 0)
(1.02197 0.016138 5.32603e-19)
(1.0183 0.0162561 -6.74481e-19)
(1.02231 0.0180937 -5.31842e-19)
(1.02 0.0171111 6.67628e-19)
(0.771352 1.30056 0)
(0.709447 1.35445 7.00126e-20)
(0.872604 1.21152 1.4451e-20)
(0.933152 1.15232 -1.92223e-20)
(1.1573 2.60264 1.67717e-19)
(0.81784 0.0995406 2.63956e-19)
(1.14584 0.0994722 0)
(1.19486 0.184495 -2.41016e-19)
(1.18678 0.138945 -1.01563e-20)
(1.00413 0.137309 0)
(0.159752 2.96045 2.36958e-19)
(0.116047 2.86708 -5.84528e-19)
(0.0305491 2.37852 3.64814e-19)
(0.0962883 0.0172411 -1.55878e-19)
(0.335924 3.42416 -7.3938e-20)
(0.195121 3.32153 0)
(0.227597 3.35687 9.62235e-20)
(0.256648 3.04115 -7.59035e-19)
(0.360143 3.20195 0)
(0.00747054 3.12034 2.20672e-20)
(0.0175139 3.12912 -2.62168e-19)
(0.0160925 3.12497 3.84496e-19)
(0.0359378 3.13957 0)
(0.0339025 3.15053 0)
(1.18974 2.6433 0)
(0.537169 0.845265 -2.28863e-19)
(1.05612 0.977269 2.09249e-20)
(0.961388 1.06885 0)
(0.807122 0.946266 -5.89588e-20)
(1.04328 0.87975 1.09042e-20)
(0.352563 0.411784 -4.14803e-19)
(0.701331 0.329525 -8.64763e-21)
(0.680426 0.246445 1.88394e-19)
(0.587748 0.397159 1.38842e-20)
(0.506702 0.356125 -5.60402e-19)
(0.671739 0.34864 0)
(0.709932 0.425764 3.17761e-19)
(0.715666 0.421588 0)
(0.624239 0.380823 0)
(0.605463 0.294272 0)
(0.786823 0.610021 1.92797e-19)
(1.19832 0.276228 -2.59847e-19)
(1.20406 0.411512 0)
(1.22788 0.351204 0)
(0.758466 0.196371 2.81517e-19)
(0.837196 0.539656 -1.75311e-19)
(0.7427 0.515031 3.11671e-19)
(0.940919 0.418646 -3.45324e-19)
(1.02015 0.0147266 3.61592e-19)
(1.01822 0.0143588 -3.63984e-19)
(1.01597 0.0162488 0)
(1.03559 -0.00636685 0)
(1.02938 -0.00882531 -3.41837e-19)
(1.02718 -0.0128126 3.3916e-19)
(1.02515 0.0094515 0)
(1.02401 0.0128716 0)
(1.01121 0.0039035 0)
(1.01436 0.00880941 0)
(1.01469 0.00399612 0)
(1.01384 0.00293858 0)
(0.0602372 1.32362 0)
(0.0614238 1.28485 0)
(0.145445 1.33555 -2.84437e-20)
(0.268693 1.45591 2.24509e-20)
(0.15343 1.42645 4.65888e-20)
(0.191876 1.43811 -7.65697e-20)
(0.161713 1.36469 0)
(0.129724 1.58942 -5.13785e-20)
(0.108488 1.55437 0)
(0.353448 2.02458 -5.35625e-20)
(0.354021 2.37101 2.75997e-19)
(0.187697 1.43786 4.49253e-20)
(0.252327 1.36416 -3.38402e-21)
(0.197458 1.34825 2.72184e-21)
(0.260301 1.30963 -7.09103e-20)
(0.230469 1.57547 0)
(0.25868 1.60685 6.90467e-20)
(0.029811 2.2767 -2.47513e-20)
(0.0380739 2.67654 0)
(0.0600959 2.41497 8.81917e-20)
(0.0525524 2.43897 0)
(0.070909 2.67133 -1.17553e-19)
(0.0538762 2.70379 0)
(0.0227453 1.40707 -2.13567e-20)
(0.0269827 1.45344 0)
(0.0299301 1.37513 0)
(0.0208356 1.38092 2.40429e-20)
(-0.00508588 2.65692 -1.01939e-20)
(0.0260306 2.70139 1.19494e-19)
(0.00980589 2.72436 8.82044e-22)
(-0.00412846 1.84166 2.49125e-20)
(-0.0160204 1.66962 1.19546e-20)
(0.0338855 1.289 0)
(0.0351374 1.16164 0)
(0.0472904 1.56178 3.00558e-20)
(0.024768 1.43743 2.86468e-20)
(0.0323926 1.50204 -3.59562e-20)
(0.0355281 1.58505 0)
(-0.0634226 2.32091 -3.52925e-20)
(-0.0765423 2.54843 1.4059e-20)
(-0.0243405 2.46594 -9.48859e-21)
(-0.0184771 1.85204 -3.00936e-20)
(-0.0426428 2.49238 -1.24961e-20)
(-0.0258884 2.44212 5.46702e-20)
(1.0206 0.0208531 -3.59322e-19)
(1.01703 0.0260121 3.60869e-19)
(1.01528 0.0171179 0)
(1.01422 0.0655823 5.02335e-19)
(0.994601 0.0567575 -5.61521e-19)
(0.956473 0.0420588 6.28204e-19)
(1.01663 0.0988021 -6.73129e-20)
(1.0416 -0.00638619 0)
(1.04964 -0.00243705 3.28665e-19)
(1.03803 -0.0107574 -3.27933e-19)
(1.0701 0.0397795 -1.94683e-20)
(1.06331 0.0207593 1.6776e-19)
(1.06422 0.0495111 0)
(1.05283 0.0444234 -6.00026e-20)
(1.03376 0.0384105 0)
(1.02685 0.0348474 0)
(1.02745 0.0131564 0)
(1.02441 0.0158086 0)
(1.03872 0.0305953 1.23301e-19)
(1.03961 0.0244789 -2.71486e-19)
(1.04972 0.030712 -1.31608e-19)
(1.04706 0.0314639 -1.44487e-19)
(1.06571 0.0574244 2.83539e-19)
(1.09093 0.0451997 0)
(1.10035 0.0874204 0)
(-0.0697227 2.33327 -1.04471e-21)
(-0.0385757 2.24505 1.66192e-22)
(-0.00987297 2.19311 0)
(-0.0894311 2.49196 1.04904e-21)
(-0.131788 2.49423 8.15287e-22)
(-0.117273 2.49803 -6.48006e-21)
(-0.0341333 2.61269 4.42319e-20)
(-0.0559675 2.54939 -3.46597e-21)
(-0.0344971 2.51296 1.35979e-20)
(-0.0367277 2.60073 -2.40992e-20)
(-0.0360416 2.605 2.97078e-20)
(0.115666 1.61628 7.24164e-22)
(0.049003 1.79615 1.12531e-20)
(0.361283 1.41432 -2.41159e-20)
(0.359058 1.36342 4.12377e-20)
(0.652085 1.4036 -6.76759e-20)
(0.518634 1.46879 -4.34346e-20)
(0.579056 1.43979 0)
(0.581054 2.41964 1.00264e-19)
(0.653017 2.41439 1.51231e-19)
(0.40534 2.51772 3.64938e-20)
(0.408118 2.55475 -2.83712e-19)
(0.522453 2.50531 2.7126e-19)
(0.541849 2.45806 0)
(0.479735 2.51334 -2.49647e-19)
(0.237417 2.59023 5.34605e-19)
(0.347969 2.5713 -3.36018e-20)
(0.282004 2.6527 -7.20356e-19)
(0.929069 2.37678 3.46366e-19)
(0.823298 2.38378 0)
(1.01087 0.00019414 1.1653e-20)
(1.0152 -0.00556575 -9.65693e-21)
(1.0176 -0.00354032 -1.74046e-19)
(1.01485 -0.00100853 1.75931e-19)
(1.01215 0.000924585 0)
(0.636045 1.27017 0)
(0.646215 1.16376 0)
(0.74333 1.06702 0)
(0.643498 1.12564 0)
(1.18459 2.61337 2.73999e-20)
(1.07327 2.36036 0)
(0.850947 2.17971 1.92581e-21)
(0.823139 2.44984 0)
(0.921643 2.53913 -1.98857e-19)
(0.959156 2.49812 1.29226e-19)
(0.820493 0.145236 0)
(0.795754 0.126007 7.19253e-20)
(0.926603 0.131227 4.20729e-19)
(0.838475 0.117494 -1.57571e-19)
(0.825944 0.066822 -4.82941e-19)
(1.06822 0.220055 -4.32799e-19)
(0.994381 0.284959 -6.22186e-21)
(0.915338 0.267571 3.93583e-19)
(1.00442 0.206391 3.30683e-19)
(0.952087 0.168808 -5.60777e-19)
(0.922236 0.17194 6.98512e-20)
(0.94799 0.22718 -1.51001e-19)
(0.930453 0.194541 0)
(0.995895 0.169129 2.76988e-19)
(1.04695 0.171928 0)
(1.04435 0.201157 0)
(1.09373 0.107109 1.34502e-19)
(1.07838 0.162095 -5.70825e-21)
(1.06503 0.222124 -7.21581e-20)
(1.09788 0.190871 0)
(1.02255 0.0433483 2.79064e-19)
(1.04309 0.0546642 3.45999e-19)
(1.03348 0.0412799 -2.74039e-19)
(1.04218 0.0601308 -2.32386e-19)
(1.01623 0.0674812 -3.54341e-19)
(0.992523 0.141585 0)
(1.00283 0.0968921 0)
(0.974776 0.065621 -2.23026e-19)
(0.926494 0.0828955 8.70694e-20)
(1.03866 0.0938723 3.22476e-19)
(1.06951 0.106089 -3.8482e-19)
(1.07634 0.13779 3.4006e-19)
(1.03089 0.135294 0)
(1.07191 0.0980228 0)
(1.05793 0.0789795 -1.56041e-19)
(1.04635 0.0889587 -2.63914e-19)
(0.57764 1.08197 7.23541e-20)
(0.621697 1.39433 -3.65944e-20)
(1.15983 2.73982 -1.1422e-19)
(1.23627 3.07643 2.69951e-21)
(1.24918 2.71138 -9.91334e-20)
(1.27936 2.70969 -1.71968e-20)
(1.16596 2.35197 8.18942e-21)
(1.22489 2.96998 -7.22696e-20)
(1.24676 2.93859 1.47472e-19)
(1.24167 3.23239 -7.26493e-20)
(1.36455 2.96813 8.40489e-20)
(1.30316 2.89267 0)
(0.544043 0.849288 -2.20885e-20)
(0.117193 1.25242 2.60499e-19)
(0.548632 0.467132 2.70876e-19)
(0.355883 0.209711 2.94366e-19)
(0.525508 0.403165 3.173e-19)
(0.553662 0.476991 -5.21518e-19)
(0.543369 0.498679 4.26381e-19)
(0.492012 0.417344 -1.61388e-19)
(0.415249 0.346657 3.64107e-19)
(0.759512 0.25288 -1.6093e-19)
(0.720557 0.286264 0)
(0.713027 0.217902 3.81586e-21)
(0.727064 0.516137 1.67045e-19)
(0.702207 0.479244 -6.10829e-19)
(0.606837 0.485697 5.57838e-21)
(0.626112 0.466811 0)
(0.659774 0.739133 1.80343e-19)
(0.825231 0.77739 1.82246e-19)
(0.742788 0.859621 -2.1203e-19)
(0.859427 0.801967 -7.47102e-20)
(0.88617 0.833996 -2.06006e-20)
(0.893215 0.83734 2.11632e-20)
(0.83464 0.633457 -3.21585e-19)
(0.904373 0.706766 6.96352e-20)
(0.958475 0.710938 0)
(0.940007 0.677658 -9.9947e-20)
(1.01966 0.30947 1.01114e-19)
(1.10924 0.283771 1.49911e-19)
(1.05345 0.257259 1.73459e-19)
(1.00726 0.354728 -2.02999e-19)
(1.04124 0.421082 0)
(1.08156 0.401777 0)
(0.907241 0.344003 2.49276e-21)
(0.842019 0.283614 0)
(0.868777 0.277038 1.83182e-19)
(0.906243 0.275057 -3.81485e-21)
(0.930414 0.42043 9.63578e-19)
(0.887123 0.483893 2.51066e-19)
(0.890589 0.447055 -2.64623e-19)
(0.814097 0.432787 2.83855e-19)
(0.799069 0.433321 1.69727e-19)
(0.766841 0.419314 -1.65253e-19)
(1.02792 -0.000672462 2.8711e-19)
(1.01984 -0.000199254 0)
(1.01853 0.000688462 1.90358e-19)
(1.02106 -0.00233808 -4.29098e-19)
(1.02215 0.00414378 2.09035e-19)
(1.02051 0.010996 -4.39868e-19)
(1.02155 0.0103287 0)
(1.02112 0.0104062 -9.08131e-20)
(1.01593 0.00770337 2.27475e-19)
(1.01689 0.0101998 -1.15111e-19)
(1.01762 0.00943583 8.47857e-20)
(0.0305585 1.30556 0)
(0.0402835 1.34526 0)
(0.0440584 1.30374 0)
(0.0505686 1.26811 0)
(0.0660591 1.362 4.15243e-20)
(0.0754652 1.33256 -8.9652e-21)
(0.115937 1.48731 -2.24609e-20)
(0.0826394 1.33106 1.59205e-20)
(0.0304895 1.43962 -4.16564e-20)
(0.034238 1.42974 3.18164e-20)
(0.0609643 1.34424 -1.43633e-21)
(0.0559673 1.34535 -2.38868e-20)
(0.0522181 1.32577 -3.62827e-21)
(0.040804 1.3477 -4.61247e-21)
(0.1056 2.38676 -9.51774e-20)
(0.0905264 2.43291 0)
(0.167583 2.08048 5.61661e-20)
(0.108728 1.70859 2.80393e-20)
(0.234971 2.06447 -4.43538e-20)
(0.209935 2.45262 0)
(0.271881 2.40665 -2.72917e-19)
(0.307899 2.40537 1.93115e-19)
(0.224185 2.01767 -1.29069e-19)
(0.149399 2.18275 8.32314e-20)
(0.153684 2.3055 0)
(0.00691339 1.88303 -4.27339e-20)
(-0.0143689 2.41168 -7.22592e-20)
(-0.00192787 2.16591 0)
(0.0097985 2.47042 -6.14858e-21)
(0.0207638 2.31881 2.57282e-20)
(0.0178405 1.38996 3.48487e-21)
(0.0228537 1.37955 -4.97752e-20)
(0.0293357 1.39613 1.12075e-20)
(0.0139076 1.39293 1.98614e-20)
(0.0224147 1.41139 0)
(0.0297394 1.37704 0)
(0.0804787 1.23108 1.34941e-20)
(0.101725 1.38174 -5.3957e-21)
(0.0582037 1.37446 0)
(0.0492064 1.26596 1.02285e-20)
(0.0292074 1.09009 -1.88452e-20)
(1.03939 0.0099175 0)
(1.04509 0.00649368 -3.06065e-20)
(1.03858 0.019875 -2.18971e-19)
(1.04724 0.0185221 0)
(1.05074 0.0186738 0)
(1.03671 0.0105284 -2.76047e-21)
(1.03144 0.0100809 3.52626e-19)
(1.03186 0.0157185 4.31232e-19)
(1.02585 0.0197239 0)
(1.0236 0.0201747 0)
(1.03495 0.0240314 2.19485e-19)
(1.02674 0.0249746 0)
(1.02521 0.0246868 0)
(-0.0425757 2.02811 0)
(0.0367688 1.78658 1.53694e-21)
(0.012484 1.85314 4.27454e-21)
(0.0876528 1.39559 0)
(0.0510286 1.63594 1.12452e-20)
(0.0864748 1.52811 -4.00531e-21)
(0.0959868 1.46261 0)
(0.386525 1.68801 0)
(0.363696 1.28666 -7.63769e-20)
(0.31374 1.34105 0)
(0.420424 1.28394 6.20916e-20)
(0.465401 1.44536 0)
(0.445356 1.39059 -1.63311e-20)
(1.02905 2.6849 -7.45396e-21)
(0.956436 2.41096 -4.23218e-19)
(0.902624 2.18675 4.95495e-19)
(0.841498 2.37394 1.18493e-19)
(0.839793 2.50157 0)
(0.909479 2.49367 0)
(0.903637 2.3734 0)
(0.900046 2.35303 -4.32952e-19)
(0.688058 2.46673 -1.90256e-19)
(0.797004 2.46259 -4.55933e-20)
(0.809169 2.43157 3.61201e-20)
(0.685198 2.39046 0)
(0.785528 2.38961 0)
(0.744914 2.39898 -1.62883e-19)
(0.763642 2.49687 0)
(0.615109 1.10279 0)
(0.482609 0.922765 -2.29189e-19)
(0.562054 0.951063 -1.47645e-20)
(0.524753 1.05315 0)
(0.526564 1.00423 3.47035e-19)
(0.766588 0.888532 -6.28957e-20)
(0.774901 1.00579 0)
(0.747178 0.951696 9.64347e-20)
(0.633914 1.04163 0)
(0.641798 0.945699 0)
(1.1655 2.75461 -1.19404e-19)
(1.14228 2.82025 -5.9235e-20)
(0.938073 2.33463 7.57832e-20)
(0.899227 2.31389 -4.52695e-20)
(1.12823 2.72525 0)
(1.08087 2.69393 5.70287e-20)
(1.08681 2.47798 -1.50921e-19)
(0.980961 2.22997 -1.36121e-20)
(0.497412 1.36047 0)
(0.506004 1.07244 -6.34183e-20)
(0.560361 1.14287 0)
(0.865276 0.212511 0)
(0.801004 0.168469 0)
(0.751725 0.141992 0)
(0.85777 0.220257 -2.89509e-19)
(0.777126 0.215169 1.69379e-19)
(0.938671 0.0696699 -1.80993e-19)
(0.952 0.114414 0)
(0.929513 0.118635 7.7731e-20)
(0.867578 0.0959399 3.12444e-19)
(0.853857 0.0576497 -1.9607e-19)
(1.17302 3.3666 -2.96159e-19)
(1.22453 3.28731 0)
(1.13924 3.38448 -5.85728e-19)
(0.638747 3.54342 5.11332e-19)
(0.850237 3.10956 1.03105e-20)
(0.506611 0.855422 2.67605e-19)
(0.416034 0.847255 0)
(0.326121 0.513223 -6.58056e-20)
(0.449094 0.68526 3.74578e-19)
(0.543611 0.480114 -9.24962e-20)
(0.51628 0.528529 1.0352e-19)
(0.650378 0.537617 2.27899e-19)
(0.685074 0.54892 0)
(0.641295 0.617432 0)
(0.596383 0.552859 0)
(0.958923 0.593167 5.42645e-20)
(0.88768 0.531888 -2.42425e-19)
(0.910016 0.563557 1.91913e-19)
(0.945295 0.503642 -1.8951e-19)
(1.05193 0.478419 0)
(1.04508 0.559831 -4.99759e-20)
(0.838317 0.387004 -3.86331e-19)
(0.843851 0.372812 -4.70764e-19)
(0.791487 0.380463 2.99555e-19)
(0.788898 0.354943 -3.04393e-19)
(0.840217 0.310186 -2.38977e-19)
(0.791681 0.309178 2.94193e-19)
(1.0267 0.00521015 -2.23623e-19)
(1.02637 0.00568257 4.63472e-19)
(1.02896 -0.000972594 2.78385e-19)
(1.03282 0.000661516 -3.38047e-19)
(1.03269 0.00702436 0)
(1.02995 0.00792353 -5.54511e-19)
(0.0561548 1.63687 1.61247e-20)
(0.0389592 1.56274 0)
(0.0848578 1.6872 1.13103e-19)
(0.0925178 1.66848 -1.01452e-19)
(0.08797 1.50424 4.19616e-20)
(0.0800809 1.49037 0)
(0.00251762 1.70217 0)
(0.000887289 1.52344 -8.66255e-21)
(0.0408647 1.46508 7.78537e-21)
(0.0325193 1.61509 6.2659e-21)
(0.00182207 1.90367 -1.59679e-20)
(-0.0261156 1.93446 1.01306e-20)
(0.497531 1.37468 -1.47963e-19)
(0.493421 1.38439 1.58996e-19)
(0.444339 1.28208 -4.27713e-20)
(0.436912 1.29215 5.17262e-21)
(0.624422 1.28901 0)
(0.542692 1.37699 1.28034e-20)
(0.561443 1.38747 -1.2426e-20)
(0.45305 1.26996 4.14405e-20)
(0.509745 1.22592 0)
(0.556662 1.18895 0)
(0.650808 2.42549 2.85502e-19)
(0.670735 2.46781 5.62089e-19)
(0.709122 2.48207 -3.85567e-19)
(0.610545 2.46619 -8.98072e-20)
(0.565012 2.55144 1.31439e-19)
(0.524371 2.53248 -3.38779e-19)
(0.972427 2.37417 -2.76607e-19)
(1.00958 2.3858 0)
(0.916069 2.16589 -3.21377e-19)
(1.05072 2.67479 0)
(1.05348 2.6614 0)
(0.605299 2.25565 -8.26442e-20)
(1.02927 3.15784 3.37209e-20)
(0.896418 3.01762 2.29722e-20)
(0.287424 0.915273 0)
(0.325851 0.75911 -1.39779e-19)
(0.464483 0.724897 -1.42741e-19)
(0.400959 1.98412 0)
(0.479261 2.78703 -7.29969e-21)
(0.434239 2.57075 0)
(0.672344 0.67572 -3.81223e-19)
(0.756391 0.685622 5.17476e-19)
(0.784035 0.620491 -5.08952e-19)
(0.663752 0.641098 -4.9153e-20)
(0.713373 0.597136 -2.02642e-19)
(1.01358 2.76383 -2.54671e-20)
(1.04482 2.83343 -7.07671e-20)
(0.655499 2.13852 3.13656e-19)
(0.583249 1.71726 -2.16382e-19)
(0.710094 1.90746 -1.98918e-19)
(0.994855 2.46902 -4.78287e-20)
(0.996357 2.4564 1.28869e-19)
(0.666658 1.87396 1.12269e-20)
(0.45884 1.33736 7.34128e-20)
)
;

boundaryField
{
    wall-4
    {
        type            noSlip;
    }
    velocity-inlet-5
    {
        type            fixedValue;
        value           uniform (1 0 0);
    }
    velocity-inlet-6
    {
        type            fixedValue;
        value           uniform (0 3 0);
    }
    pressure-outlet-7
    {
        type            zeroGradient;
    }
    wall-8
    {
        type            noSlip;
    }
    frontAndBackPlanes
    {
        type            empty;
    }
}


// ************************************************************************* //
