/*--------------------------------*- C++ -*----------------------------------*\
| =========                 |                                                 |
| \\      /  F ield         | OpenFOAM: The Open Source CFD Toolbox           |
|  \\    /   O peration     | Version:  4.0                                   |
|   \\  /    A nd           | Web:      www.OpenFOAM.org                      |
|    \\/     M anipulation  |                                                 |
\*---------------------------------------------------------------------------*/
FoamFile
{
    version     2.0;
    format      ascii;
    class       volScalarField;
    location    "68";
    object      p;
}
// * * * * * * * * * * * * * * * * * * * * * * * * * * * * * * * * * * * * * //

dimensions      [0 2 -2 0 0 0 0];

internalField   nonuniform List<scalar> 
918
(
0.557453
1.18363
0.00129282
0.556901
-0.0125497
1.15061
-0.51044
0.660956
0.537653
-0.108141
-0.0499578
0.539976
1.01141
0.7772
-1.12342
-0.0102541
0.652043
-0.381143
0.536768
-0.0588684
0.689847
0.544192
0.547217
0.537795
0.598385
0.750495
0.892554
0.0237679
0.00939317
0.00495836
-0.011896
-0.038819
-0.032981
1.03426
1.08533
1.10803
0.505401
0.333766
-0.375844
-0.448714
-0.436199
-0.544775
0.659025
0.658013
-0.211643
0.664108
0.66598
0.524675
0.537023
0.537934
0.538953
0.537938
0.539318
0.404509
-0.108316
-0.139563
-0.0893261
-0.0828866
0.0531417
-0.0517254
-0.0540533
-0.0480492
-0.0479517
0.454511
0.534157
0.53058
0.544132
0.55385
1.12317
1.09511
1.12124
1.03491
1.05138
0.989414
0.96198
0.797722
0.819604
0.762299
0.747818
-1.55477
-2.50556
-0.533968
-0.283604
-0.0106164
-0.00799577
-0.00244129
0.649062
0.650439
0.651489
0.653616
1.0801
-0.378687
-0.47907
0.53691
0.535721
0.544037
0.544738
0.540758
0.539848
-0.0502338
-0.0470696
-0.0494772
-0.0551542
-0.0532763
0.677134
0.677863
0.538323
0.535326
0.561493
0.581411
0.571537
0.277986
0.609072
0.624882
0.58325
0.743159
0.737254
0.74617
0.866315
0.829689
0.92948
0.952803
0.016735
3.5736e-05
-0.0150354
-0.0195603
-0.0181595
0.501229
0.493764
0.521242
0.50884
0.51135
0.250535
0.117182
0.418693
0.443525
-0.294918
-0.36145
-0.428825
-0.459561
-0.568129
0.612431
0.656811
0.655343
-0.221798
-0.149971
-0.283273
-0.0768953
-0.139864
0.514932
0.521952
0.516946
0.532509
0.526974
0.528938
0.541294
0.538364
0.539924
0.466646
0.590186
0.330727
0.295315
-0.242295
-0.154643
-0.241983
-0.0723225
-0.0695979
0.0671699
0.0928059
0.0399292
0.0282037
-0.064615
-0.0577237
-0.0608357
-0.046059
-0.0455378
0.447251
0.43603
0.467211
0.474779
0.520541
0.522076
0.526575
0.524303
0.912874
0.935316
0.9427
0.916378
-3.49459
-6.27532
0.0407629
0.177135
-0.00668696
-0.00936631
0.00200419
-0.00574802
0.000279273
-0.00190938
-0.0072977
-0.00875234
-0.00386897
-0.00264713
0.643648
0.644766
1.00231
1.00915
0.977923
0.930847
0.525133
0.527203
0.532698
0.528582
-0.0452729
-0.0455677
-0.0448636
0.669318
0.674705
0.672206
0.23946
0.149654
0.329088
0.35825
0.63728
0.625636
0.635397
0.644605
0.680074
0.960222
0.978332
0.976641
0.984839
1.02884
1.04521
1.01058
0.480627
0.490634
0.485567
0.524327
0.522105
0.523001
0.519164
0.520215
0.518343
-0.0332243
-0.413081
0.490807
0.507697
0.493099
0.495496
0.692576
0.771203
0.653282
0.654777
0.654317
-0.00767893
-0.0661881
0.250492
0.216346
0.386733
0.423189
0.402138
0.884123
0.84413
0.894339
0.867781
0.828934
0.855597
-0.364659
-1.86349
-0.98297
0.526198
0.341083
0.428261
0.00999701
-0.00671814
-0.00219409
1.00182
1.07412
0.645943
0.820775
0.823452
0.714146
0.744503
0.803521
0.728761
0.7642
0.798401
0.777351
0.568379
0.503873
0.519817
0.840324
0.896077
0.119469
0.057806
0.0139558
0.111705
0.169051
0.143134
1.03413
0.949849
1.02006
0.535087
0.535809
-0.00513814
-0.0192408
0.540056
0.540112
-0.0123018
-0.00144109
0.410851
-0.831298
0.0987349
0.528642
0.518531
0.53567
-0.0931514
0.356095
-0.0498253
0.0483524
-0.00827509
0.530384
0.46566
0.42471
0.000811836
-0.0192321
-0.0502244
-0.212692
0.532757
0.531061
0.535138
0.536079
0.53676
-0.0184302
-0.0139257
-0.0101646
-0.0469866
-0.0409649
-0.0525712
0.499561
0.518958
-0.17014
0.535284
0.53742
0.537238
0.530503
0.536132
0.534385
-0.01012
-0.0153038
-0.0175559
0.21972
0.351809
0.649675
0.736188
0.621975
0.398251
0.163405
0.553607
0.616388
0.522609
0.675499
0.652509
0.661156
0.164253
0.0139681
0.173035
0.114716
0.526503
0.525222
0.516784
0.513743
0.530538
0.528652
0.53321
0.530233
0.533184
0.534564
-0.0491341
-0.0765552
-0.0853041
-0.152594
0.31075
0.571852
0.255101
0.284625
0.142136
-0.0444083
-0.0455182
-0.0480846
-0.0569965
0.000989097
-0.0236891
0.0431967
0.0433573
0.01496
-0.0106973
-0.00790297
-0.0187697
-0.0132797
0.523763
0.523857
0.527889
0.536664
0.475323
0.479111
0.44393
0.464688
0.449939
0.388608
0.423941
0.399149
-0.00516379
0.00348077
-0.00218101
-0.0171563
-0.0139442
-0.0329268
-0.0297606
-0.0252778
-0.0212845
-0.0280375
-0.0445446
-0.0467023
-0.170786
-0.286742
0.988584
0.909801
0.137186
0.521902
0.528361
0.52512
0.53005
0.533178
0.533976
0.531684
0.52823
0.519194
0.520607
0.517562
0.518578
-0.101559
-0.242955
-0.0712902
-0.145801
0.145549
0.628588
0.363712
0.299106
0.294426
0.523177
0.917337
0.700525
0.670412
0.671504
-0.343058
0.0459122
-0.279423
0.33552
0.162587
0.651304
0.698808
0.718895
0.668045
0.621718
-0.100767
0.556161
-0.0732628
-0.0210477
0.18046
0.0564697
0.662411
0.640093
0.647204
0.654463
0.668639
0.643961
0.627444
0.62696
0.649027
0.652185
0.483857
0.250421
0.201105
0.162645
0.642837
0.517844
0.568555
0.490521
0.521784
0.524325
0.522974
0.504401
0.511999
0.507512
0.514107
0.517725
0.526257
0.526734
0.521996
0.524125
-0.0565116
-0.0631222
-0.0260094
-0.134973
-0.127795
-0.189885
-0.0598362
0.0752769
0.0364669
0.237583
0.341877
0.0525124
-0.0566947
-0.0293989
0.0126228
0.180236
0.208474
0.0749116
0.162417
0.15393
0.135128
0.237835
0.241141
-0.0283203
-0.0305189
-0.0350812
-0.0368654
0.0191384
0.0904223
0.0999149
-0.00629173
-0.012163
-0.0429922
-0.0432743
-0.0214782
-0.027229
-0.0220667
0.00537909
-0.0523508
-0.0197555
-0.00583499
-0.0035187
-0.00485279
-0.0103784
0.51857
0.520349
0.520721
0.527578
0.540668
0.555421
0.521021
0.49756
0.488334
0.491355
0.464216
0.474531
0.4703
0.483942
0.504987
0.51395
0.512174
0.515037
0.4971
0.498902
0.485471
0.489136
0.464164
0.444827
0.432899
-0.0419285
-0.00316351
-0.0113251
-0.0372603
-0.00753504
-0.0195802
-0.0104256
0.0085315
-0.00781845
-0.00926135
-0.0194159
-0.0256092
-0.0252
-0.0727665
0.0138627
-0.184025
-0.219659
-0.2926
0.890797
1.01497
0.810287
0.583353
0.603568
0.846716
0.93131
0.543583
0.735839
0.759035
0.587196
0.854619
0.526752
0.526347
0.523948
0.523428
0.524648
-0.00686619
0.099348
0.0977032
0.160944
0.277248
0.388901
0.319587
0.19452
0.324632
0.327113
0.621287
0.633552
0.588759
0.612894
0.612891
0.425329
0.500969
0.552607
0.513526
0.565512
0.586974
0.541006
0.57393
0.523653
0.479058
0.475169
0.42489
0.444541
0.420204
0.403317
0.515977
0.493462
0.504082
0.494652
0.515152
0.543392
0.539851
0.561794
0.576777
0.498148
0.453077
0.462463
0.49266
0.454048
0.469588
0.485705
0.232896
0.134864
0.217743
-0.0673804
0.00358083
-0.00903874
-0.0576373
-0.00651304
0.277722
-0.41331
-0.390013
-1.01713
0.50401
0.954818
0.59488
0.570141
0.668992
0.653527
0.659692
0.676643
0.67602
0.631377
0.640779
0.645631
0.598533
0.619391
0.638391
0.634713
0.52484
0.382899
0.381992
0.329998
0.200137
0.239929
0.436209
0.360341
0.285381
0.285523
0.456847
0.343465
0.413349
0.446989
0.378319
0.332954
0.535438
0.60162
0.595318
0.568365
0.479708
0.491937
0.516386
0.549801
0.574062
0.606487
0.51351
0.519453
0.520684
0.518153
0.515429
0.518526
0.518813
0.521374
0.521966
0.524981
0.524044
-0.0515457
-0.0372981
-0.0506718
-0.0622513
-0.0188718
-0.0206865
0.0231491
0.0109687
-0.0147858
-0.0103084
-0.032577
-0.0365775
-0.0333171
-0.0252037
0.102734
0.115316
0.0994133
0.060487
0.2514
0.380946
0.455404
0.330752
0.224614
0.248182
0.267096
-0.011565
0.0136913
0.000953537
0.040562
0.0326518
-0.0376684
-0.0412577
-0.0375128
-0.0301007
-0.0214743
-0.0369318
-0.0421892
-0.0331923
-0.0377109
-0.0403685
-0.0438188
0.499827
0.493271
0.494891
0.488754
0.487482
0.501883
0.506202
0.508145
0.513681
0.516133
0.505953
0.511519
0.515524
-0.0112217
-0.0342548
-0.0378164
-0.0284958
-0.0307247
-0.0282371
-0.0297824
0.123604
0.054523
0.0583737
0.0110977
-0.121022
-0.0630548
0.49189
0.490644
0.480066
0.721241
0.570486
0.491224
0.588277
0.693966
0.276228
0.473071
0.308108
0.888627
0.78516
0.931491
0.542533
0.245887
0.409666
0.452502
0.265927
0.341549
0.324947
0.213984
0.244731
0.282812
0.381738
0.265995
0.242761
-0.000672998
0.189956
0.302037
0.283851
0.408471
0.469124
0.266827
0.186581
0.141627
0.606229
0.625687
0.638628
0.611566
0.632788
0.581226
0.573388
0.588688
0.596589
0.591184
-0.745322
-0.451766
-1.39842
-0.720871
-0.265712
0.534511
0.506304
0.769694
0.6462
0.68226
0.667106
0.625877
0.595606
0.619833
0.642668
0.341089
0.451754
0.426959
0.432634
0.335231
0.265555
0.563288
0.560362
0.593948
0.617292
0.588911
0.618973
0.511333
0.511061
0.510512
0.506745
0.505008
0.507378
0.0592342
0.0267445
0.0669865
0.049993
0.0274406
0.0146394
-0.00952858
-0.0194697
-0.0266436
-0.0262882
-0.0121096
-0.00801519
0.171911
0.109402
0.0299538
0.0588382
-0.00184023
-0.0701891
-0.0892518
0.0160004
0.112055
0.10226
0.405518
0.655218
0.475231
0.642688
0.485156
0.541009
0.468574
0.459976
0.484922
0.379976
0.460382
0.249708
-0.258251
-0.167374
0.794725
0.805578
0.581364
0.406059
0.174136
0.352099
0.541731
0.471889
0.507303
0.576313
0.563487
0.0293612
0.0871497
0.373605
0.600438
0.240901
0.231961
0.225394
0.40957
0.327873
)
;

boundaryField
{
    wall-4
    {
        type            zeroGradient;
    }
    velocity-inlet-5
    {
        type            zeroGradient;
    }
    velocity-inlet-6
    {
        type            zeroGradient;
    }
    pressure-outlet-7
    {
        type            fixedValue;
        value           uniform 0;
    }
    wall-8
    {
        type            zeroGradient;
    }
    frontAndBackPlanes
    {
        type            empty;
    }
}


// ************************************************************************* //
