/*--------------------------------*- C++ -*----------------------------------*\
| =========                 |                                                 |
| \\      /  F ield         | OpenFOAM: The Open Source CFD Toolbox           |
|  \\    /   O peration     | Version:  4.0                                   |
|   \\  /    A nd           | Web:      www.OpenFOAM.org                      |
|    \\/     M anipulation  |                                                 |
\*---------------------------------------------------------------------------*/
FoamFile
{
    version     2.0;
    format      ascii;
    class       volScalarField;
    location    "21";
    object      p;
}
// * * * * * * * * * * * * * * * * * * * * * * * * * * * * * * * * * * * * * //

dimensions      [0 2 -2 0 0 0 0];

internalField   nonuniform List<scalar> 
918
(
0.22246
0.898466
0.0114319
0.221534
-0.00215597
0.866126
-0.84369
0.396675
0.202315
-0.466772
-0.139052
0.191466
0.726947
0.491549
-1.46027
-0.00377026
0.35248
-0.731773
0.201397
-0.00591234
0.471716
0.208848
0.211819
0.202201
0.264765
0.483255
0.607064
0.00693294
-0.000740304
-0.00402431
0.00532928
-0.0122136
-0.00823405
0.749482
0.800098
0.822644
0.171425
0.00997347
-0.677659
-0.765481
-0.75265
-0.894733
0.387926
0.392615
-0.498466
0.400449
0.416135
0.190155
0.20159
0.202476
0.203771
0.202653
0.204101
0.166303
-0.456775
-0.482812
-0.463461
-0.466597
-0.1771
-0.196502
-0.254206
-0.106717
-0.0836829
0.12725
0.188091
0.186075
0.196805
0.207558
0.837251
0.808253
0.833887
0.75087
0.765687
0.704651
0.676438
0.51331
0.534639
0.476504
0.464129
-1.88998
-2.85909
-0.866986
-0.61115
0.000758338
-0.0067056
-0.00809688
0.338984
0.346698
0.350013
0.366251
0.752113
-0.715819
-0.867014
0.201223
0.200158
0.208459
0.208806
0.205946
0.204056
0.0062644
0.00778815
-0.0170431
-0.00148388
-0.00724797
0.454436
0.448034
0.203835
0.200516
0.213481
0.234873
0.22506
-0.0293111
0.272575
0.292649
0.287358
0.462456
0.462411
0.468834
0.581566
0.543875
0.64452
0.668136
0.0134373
0.00402702
-0.0113646
-0.00796626
-0.0100625
0.167532
0.159672
0.184731
0.174893
0.177172
-0.0720587
-0.20567
0.101155
0.126404
-0.583492
-0.663425
-0.771214
-0.790742
-0.912684
0.241249
0.376555
0.378609
-0.506778
-0.435359
-0.578025
-0.348912
-0.423816
0.180584
0.187458
0.181856
0.197297
0.192204
0.193773
0.205843
0.202913
0.204458
0.19846
0.298104
0.0957349
0.046182
-0.588285
-0.483317
-0.570207
-0.475692
-0.440423
-0.149011
-0.150487
-0.190565
-0.124103
-0.419979
-0.319902
-0.370765
-0.0524393
-0.0349051
0.120365
0.112304
0.137662
0.143783
0.180827
0.181357
0.183967
0.182257
0.626663
0.649357
0.65758
0.630979
-3.88728
-6.96537
-0.278784
-0.135718
0.00198355
0.00354519
0.00273386
0.00611663
0.00282656
0.000429135
-0.0477164
-0.0367524
-0.0117256
-0.0187449
0.326104
0.330992
0.66578
0.653637
0.63228
0.600115
0.189245
0.191422
0.196974
0.192411
-0.0144698
0.00395773
-0.00549112
0.416934
0.435383
0.432485
-0.0640191
-0.150499
0.0182851
0.045274
0.312107
0.297067
0.313978
0.351844
0.38648
0.674724
0.692544
0.692903
0.700862
0.745905
0.758791
0.724527
0.148601
0.157923
0.153399
0.188244
0.185756
0.186792
0.18118
0.183566
0.179691
-0.37869
-0.742434
0.205516
0.216438
0.173469
0.184146
0.318857
0.38176
0.360532
0.367872
0.373597
-0.282337
-0.35206
0.00167743
-0.0333387
0.0700965
0.101071
0.0844553
0.59787
0.559219
0.60917
0.582511
0.542961
0.569431
-0.783117
-2.0398
-1.28906
0.228066
0.0344058
0.125002
-0.0991736
-0.101346
-0.0807042
0.620183
0.70812
0.333453
0.50654
0.567127
0.428259
0.460403
0.517199
0.437205
0.474343
0.512553
0.494181
0.21255
0.207645
0.186606
0.44398
0.495708
-0.169708
-0.213685
-0.28099
-0.131586
-0.0588798
-0.0905719
0.67415
0.559571
0.637974
0.20014
0.20073
0.0107187
0.0178071
0.204752
0.204911
0.00602206
0.00117799
0.106159
-1.16245
-0.189872
0.192495
0.183699
0.200196
-0.434289
0.0942432
-0.205701
-0.179977
0.0524437
0.190356
0.136554
0.104399
0.00637376
0.00487562
-0.0114609
-0.532409
0.197671
0.195808
0.199758
0.200837
0.201469
0.00528535
0.00636239
0.00481685
-0.00527389
0.00191173
-0.00177891
0.165401
0.180247
-0.492287
0.199793
0.202045
0.20181
0.194356
0.200375
0.198198
0.00800041
0.00250672
-0.00552733
-0.0725753
0.0410773
0.362381
0.476264
0.320493
0.087127
-0.161476
0.257414
0.326151
0.224507
0.389247
0.362693
0.387874
-0.125517
-0.28016
-0.116254
-0.17432
0.190686
0.189192
0.181921
0.178819
0.195365
0.193553
0.197691
0.194639
0.19752
0.199034
-0.43743
-0.445423
-0.422342
-0.480906
0.0461769
0.306071
-0.0385048
0.0591544
-0.155488
-0.170364
-0.118791
-0.294036
-0.339723
-0.372543
-0.0175951
-0.14214
-0.214103
0.0537808
-0.0513214
-0.268495
-0.112296
-0.214517
0.184695
0.181707
0.190782
0.197385
0.144558
0.146229
0.119178
0.135323
0.1233
0.0693259
0.102321
0.0808546
0.00716897
0.0078403
0.0049918
0.00829407
0.00556586
0.00534751
0.00772705
0.011975
0.000746271
0.00184581
-0.0117616
-0.00203026
-0.498185
-0.612812
0.638348
0.608391
-0.213718
0.186763
0.193248
0.189882
0.195037
0.197895
0.198702
0.196494
0.193144
0.181137
0.183195
0.179143
0.179335
-0.427915
-0.571527
-0.396634
-0.453037
-0.203321
0.303695
0.0529116
-0.0167752
-0.0147427
0.198858
0.6099
0.390841
0.414507
0.456538
-0.690994
-0.296428
-0.620197
-0.0284482
-0.212945
0.360814
0.413812
0.436544
0.380922
0.330495
-0.585319
0.191751
-0.368147
-0.326932
-0.132748
-0.23214
0.414784
0.347025
0.353248
0.377438
0.401951
0.35099
0.330484
0.328794
0.36806
0.372278
0.16962
-0.0388653
-0.095392
-0.12445
0.337371
0.209233
0.260445
0.179394
0.185257
0.18836
0.186757
0.170145
0.177228
0.173014
0.179124
0.181363
0.191024
0.191104
0.186717
0.188804
-0.444363
-0.468112
-0.399109
-0.45118
-0.469239
-0.531711
-0.410667
-0.220093
-0.277599
-0.0623788
-0.0041411
-0.258321
-0.391456
-0.357732
-0.357967
-0.136654
-0.0665098
-0.435951
-0.166411
-0.267598
-0.323041
-0.05217
-0.0414729
-0.32859
-0.424041
-0.461308
-0.347914
-0.21118
-0.19499
-0.213765
-0.0765348
-0.16161
-0.0946536
-0.0484521
-0.533296
-0.530547
-0.515754
-0.512823
0.00834215
0.00565992
0.00420555
-0.0264241
-0.0124466
-0.0292442
0.179025
0.179655
0.178908
0.193517
0.205177
0.220741
0.187065
0.163911
0.156541
0.158391
0.134728
0.143016
0.139969
0.151238
0.169191
0.177123
0.177124
0.179159
0.162926
0.163817
0.153495
0.156895
0.137026
0.119015
0.108722
0.00887577
0.00563841
0.00549249
0.00563569
0.0110121
0.0103132
0.0092882
0.00929862
0.00559627
0.00816444
-0.00752323
0.0143318
0.00773284
-0.419551
-0.349324
-0.517621
-0.550238
-0.625001
0.553012
0.652564
0.49389
0.275486
0.272201
0.49264
0.589508
0.264056
0.425827
0.468646
0.20823
0.459419
0.191738
0.191021
0.188406
0.187978
0.189334
-0.336544
-0.235474
-0.231946
-0.172645
-0.0617234
0.0612229
-0.0490914
-0.164552
-0.0214278
-0.0197854
0.297174
0.313625
0.258706
0.284198
0.284113
0.112315
0.186736
0.239873
0.199919
0.238437
0.258238
0.223694
0.250264
0.200574
0.159313
0.161043
0.108129
0.120141
0.0993006
0.084072
0.181191
0.160091
0.16901
0.162448
0.182193
0.208973
0.20304
0.228431
0.241464
0.169328
0.132439
0.138342
0.16729
0.131561
0.143681
0.156649
-0.130966
-0.198632
-0.162963
-0.444136
-0.349289
-0.425494
-0.457433
-0.348649
-0.0543527
-0.802854
-0.853205
-1.4148
0.130875
0.664124
0.371571
0.312883
0.400396
0.37309
0.373273
0.417448
0.418947
0.32598
0.340442
0.348211
0.293985
0.316675
0.353834
0.34764
0.182604
0.0511979
0.0391947
0.0100813
-0.106643
-0.0734104
0.124585
0.0430201
-0.0277033
-0.0104351
0.149194
0.049027
0.107978
0.135975
0.0566036
0.033127
0.221314
0.292657
0.282929
0.254659
0.173349
0.18494
0.213351
0.248373
0.271856
0.309811
0.178371
0.183979
0.185281
0.183145
0.180347
0.182895
0.182849
0.185353
0.186487
0.189216
0.188123
-0.414909
-0.472844
-0.480002
-0.4362
-0.48739
-0.459362
-0.324718
-0.369842
-0.562839
-0.576375
-0.507858
-0.489093
-0.509437
-0.518373
-0.266962
-0.247921
-0.20839
-0.274712
-0.0642807
0.0888949
0.142504
0.0114804
-0.0546412
-0.0311618
-0.0134156
-0.525841
-0.3214
-0.399344
-0.335814
-0.46255
-0.158159
-0.128655
-0.145971
-0.184128
-0.215718
-0.0872773
-0.0063697
-0.02204
-0.0338869
-0.0185604
-0.00849891
0.168028
0.162289
0.15978
0.156507
0.155534
0.165071
0.169514
0.172939
0.17852
0.178619
0.170127
0.174057
0.176982
0.00987478
0.00697211
0.0121209
-0.011451
0.000673421
0.00938099
-0.00277387
-0.210745
-0.282105
-0.29202
-0.330691
-0.462937
-0.40406
0.141779
0.117671
0.16469
0.340471
0.205637
0.12707
0.202832
0.301651
-0.0577437
0.12342
-0.041372
0.530833
0.408793
0.551056
0.18476
-0.115783
0.033262
0.0956199
-0.121374
-0.0426519
-0.0175638
-0.116417
-0.0864885
-0.0673088
0.0355017
-0.0745829
-0.102423
-0.354686
-0.167154
-0.0246649
-0.0402273
0.0821558
0.147422
-0.108029
-0.180661
-0.205769
0.287387
0.30692
0.327662
0.296016
0.322625
0.24465
0.236436
0.255365
0.264704
0.258434
-1.13842
-0.858771
-1.76255
-1.05409
-0.620857
0.161439
0.119434
0.4075
0.302298
0.378938
0.362507
0.331845
0.292451
0.300063
0.338127
0.0443606
0.145856
0.121734
0.128904
0.0260015
-0.0261048
0.261497
0.254485
0.292438
0.314959
0.284082
0.318268
0.176513
0.176186
0.175518
0.172691
0.171121
0.172465
-0.386778
-0.468981
-0.298171
-0.312558
-0.374652
-0.443949
0.0230366
-0.0124109
-0.0155498
-0.0109731
0.0251549
0.00259892
-0.191985
-0.250411
-0.310454
-0.284778
-0.34581
-0.414575
-0.432875
-0.328889
-0.238422
-0.23907
0.068202
0.301745
0.130627
0.291113
0.158501
0.190099
0.166772
0.15634
0.194902
0.0529818
0.124064
-0.0891478
-0.618799
-0.500555
0.382553
0.455787
0.232756
0.0943313
-0.19544
-0.0536602
0.213018
0.145187
0.188918
0.25905
0.252415
-0.349004
-0.308365
-0.0112105
0.18974
-0.121072
-0.177866
-0.169514
-0.00777027
-0.0546937
)
;

boundaryField
{
    wall-4
    {
        type            zeroGradient;
    }
    velocity-inlet-5
    {
        type            zeroGradient;
    }
    velocity-inlet-6
    {
        type            zeroGradient;
    }
    pressure-outlet-7
    {
        type            fixedValue;
        value           uniform 0;
    }
    wall-8
    {
        type            zeroGradient;
    }
    frontAndBackPlanes
    {
        type            empty;
    }
}


// ************************************************************************* //
