/*--------------------------------*- C++ -*----------------------------------*\
| =========                 |                                                 |
| \\      /  F ield         | OpenFOAM: The Open Source CFD Toolbox           |
|  \\    /   O peration     | Version:  4.0                                   |
|   \\  /    A nd           | Web:      www.OpenFOAM.org                      |
|    \\/     M anipulation  |                                                 |
\*---------------------------------------------------------------------------*/
FoamFile
{
    version     2.0;
    format      ascii;
    class       surfaceScalarField;
    location    "21";
    object      phi;
}
// * * * * * * * * * * * * * * * * * * * * * * * * * * * * * * * * * * * * * //

dimensions      [0 3 -1 0 0 0 0];

internalField   nonuniform List<scalar> 
1300
(
3.75095
5.62643
-5.93925
3.75095
-5.85253
5.62643
-4.57912
4.57912
-1.22603
1.22603
1.87664
1.87431
-2.84301
2.84301
-3.48315
3.48315
-2.62857
2.62857
-5.24636
5.24636
-5.06776
5.06776
4.67403
-4.67403
-4.72116
4.72116
-1.70014
1.70014
-3.97169
3.97169
3.16953
-3.16953
-4.53578
4.53578
-0.433073
0.433073
-0.552849
4.3038
3.1981
3.1981
-2.33869
2.33869
-4.85549
4.85549
6.21767
-6.21767
8.98352
-8.98352
-3.04427
-3.4328
1.34033
-8.27857
-4.5122
-4.5122
-8.44023
8.44023
-2.8138
2.81263
2.94242
-2.94242
-1.84067
1.84067
-4.49527
-0.0838507
-4.49527
4.59098
-0.0118571
4.59098
-1.35628
0.130248
-1.35628
4.03621
-4.03621
1.07511
0.150926
1.07511
3.06463
-3.06463
-1.87702
3.75366
1.87393
-1.8716
6.17541
-1.87935
3.75366
-5.81767
5.81767
-3.17844
0.335431
-3.17844
2.58224
0.260768
2.58224
-5.18767
5.18767
-2.98121
-0.501937
-2.98121
3.89631
-0.413162
3.89631
2.86113
-2.86113
-2.66503
0.0364661
-2.66503
2.58266
0.0459014
2.58266
0.353719
5.27271
-5.98015
8.79277
-5.27271
0.0263516
5.2083
0.0380566
5.2083
-5.10582
0.0380628
-5.10582
5.01154
0.0562168
5.01154
4.75526
-0.0812272
4.75526
-4.79429
0.120262
-4.79429
-3.33887
-3.50929
-4.82156
0.100398
-4.82156
-1.69489
-0.00525095
-1.69489
1.67386
0.0262825
1.67386
-3.4484
3.4484
-4.36098
0.389291
-4.36098
3.12334
0.0461902
3.12334
1.86906
1.8819
5.62001
-5.62001
2.45048
-4.45991
-0.0758667
-4.45991
-4.63198
-4.35154
4.63198
-0.0961998
-0.720833
0.28776
-0.720833
3.16033
0.0377719
3.16033
2.50356
0.0791012
-2.50356
0.164875
3.32208
-3.32208
1.71142
0.62727
1.71142
-5.57167
5.57167
4.94987
0.0616698
-4.94987
0.0943835
6.15662
0.061049
6.15662
-6.19989
-0.0177801
-6.19989
3.32294
-6.75574
-3.47274
4.61198
0.109176
-4.61198
0.0997824
2.90725
0.0351673
2.90725
-2.91826
2.91826
-2.98153
0.0391129
-2.98153
-2.24015
0.399484
-2.24015
1.53503
0.30564
1.53503
-4.35502
-0.140245
-4.35502
-4.51493
0.153954
4.51493
0.0760455
0.998894
-0.998894
-1.49486
0.138583
-1.49486
-4.18735
-0.167679
4.18735
-0.151138
-3.89553
-0.140681
-3.89553
-3.02283
0.0412979
3.02283
0.0418026
3.11285
0.0474866
-3.11285
0.0482162
-1.87094
3.75284
-1.88001
3.75394
-5.42994
-0.387724
-5.42994
6.03219
-0.214524
6.03219
3.56492
0.406766
-3.56492
0.386485
2.44903
0.13321
2.44903
-5.47577
0.288097
-5.47577
5.01072
0.176954
5.01072
2.59142
-0.142392
-2.59142
-0.389792
4.16959
-0.273275
4.16959
2.91735
-0.0562168
2.91735
-2.83704
-0.0240926
-2.83704
2.78264
-2.78264
2.71224
0.0704038
-2.71224
0.0472069
-11.1324
11.1146
-0.0348438
-11.0975
5.17346
5.17346
4.17075
0.584509
4.17075
-5.00696
0.212665
-5.00696
3.29529
-6.76802
3.49547
-6.83434
3.48759
-11.7662
3.38408
-6.89337
4.98771
-4.98771
4.91663
0.0710809
-4.91663
0.0950723
-1.71963
0.0247414
-1.71963
-2.82852
-0.619878
-2.82852
4.12169
-0.673289
4.12169
-3.02956
3.02956
-3.07794
0.0483796
3.07794
0.0454052
4.34522
-0.175637
-4.34522
-0.114689
0.911161
0.163945
-0.911161
0.190327
3.52667
-0.204587
3.52667
-3.128
-0.194082
-3.128
-1.72162
0.001983
1.72162
-0.0101993
-5.81781
0.246139
-5.81781
-11.191
0.0934346
-11.1529
-6.10645
-6.10645
2.33378
11.1266
-2.86258
0.025537
2.86258
0.0446698
2.97522
0.0543392
-2.97522
0.0569577
-2.85498
0.0723366
2.85498
0.0632828
-2.63586
0.395702
-2.63586
-1.12423
1.12423
-1.31183
0.187595
1.31183
0.223204
1.22784
-0.228944
1.22784
1.59678
0.0770813
-1.59678
0.101916
-3.795
-0.100522
-3.795
5.99738
0.0348133
5.99738
-3.00188
-0.126127
3.00188
-0.0845245
-0.0333793
11.148
-5.14008
0.0342553
5.14008
-11.209
11.2433
-3.27119
0.63533
3.27119
0.899562
5.2951
0.276576
-5.2951
0.288142
5.02815
-0.0174335
-5.02815
0.0404408
-2.33757
-0.490948
-2.33757
-4.86433
-0.565607
4.86433
-0.742646
-11.4732
-0.203175
11.6764
-11.417
6.02099
0.135629
-6.02099
11.3789
-0.990471
-0.00842318
0.990471
0.13376
1.50641
-0.278567
1.50641
3.69998
-0.173306
-3.69998
-0.0950263
-5.84636
0.370587
5.84636
0.15102
-1.90204
-0.435533
1.90204
-0.395635
-4.26626
4.30403
1.90914
-3.2571
-3.49864
-7.60864
1.85192
1.90092
4.3024
-7.28812
-4.47804
-7.18834
7.27065
-6.98251
-9.30446
9.22323
7.48635
-7.62703
-5.78742
5.83282
6.48128
-6.43947
1.87809
1.87557
7.40871
-7.07328
-15.6452
15.2575
6.92418
-7.42611
15.5572
-15.2691
-15.2335
15.2161
-5.77361
5.81008
-6.65744
6.63334
-6.83779
6.75327
-3.21281
-3.62154
9.64571
-9.54531
11.4054
-11.4812
-8.39945
8.78874
3.38136
0.922672
3.42885
-1.88249
3.76058
-1.87117
3.78032
3.50598
-6.71878
3.26205
-6.76068
5.98845
5.41693
-5.89225
-1.71639
-5.90553
5.94069
-5.83126
5.89454
8.93908
-9.02293
-1.88546
3.76103
-1.86849
3.76941
-3.42641
-2.36101
3.38022
0.922176
5.82593
3.81977
-5.93511
-1.25323
-7.75135
7.57805
-8.00159
7.80751
-0.447745
5.82036
-5.37262
4.40775
-1.546
7.36636
5.72465
5.93732
5.86754
-5.59096
1.11498
-6.48759
-6.39321
-2.5643
2.70288
2.55898
-2.40805
5.88627
1.60008
5.73513
-5.51103
-2.116
-5.61155
3.82127
2.01155
3.86965
4.0762
2.40508
4.1175
3.03058
-3.03568
0.0050962
-3.05592
6.08651
0.725347
-5.41693
-4.49475
3.99915
3.40956
4.25992
-5.326
-1.74728
-4.93952
-9.41385
-6.2314
-9.97946
10.0765
5.18103
9.86197
-12.0866
12.2377
5.35163
1.57255
4.93846
-3.92496
-3.50116
-4.31475
12.0184
-0.786587
-11.2318
-9.44357
-5.78995
9.26662
6.29062
8.79527
6.42082
8.83571
3.27595
8.74242
-9.56657
3.77662
-3.86457
-1.90905
-3.81736
3.7478
2.06228
3.7937
-4.16985
-2.48758
-4.14431
-4.19999
-2.6378
4.25621
2.37713
-4.29838
-3.70321
4.42451
2.32876
3.23598
-7.71402
3.65738
-7.27892
-6.88737
-2.65794
-6.79229
4.34288
2.4139
-6.75678
-2.3759
10.853
-5.43604
9.13658
-6.83194
-4.6493
-6.94663
-6.79806
-1.60139
-6.6441
-8.78488
8.29393
-9.10431
8.43103
12.7079
-5.68961
-7.01831
-3.9678
-2.47167
3.91959
-0.490736
-3.71156
3.71666
0.0490194
3.82933
4.75201
4.26127
-3.89091
-1.94034
-3.83396
3.8343
2.06024
3.90663
6.76908
2.17
6.75722
-6.41161
-2.61132
-6.55185
9.0672
-8.66771
2.96808
-2.96609
5.23112
2.5764
-5.02653
-2.72482
6.03921
-3.03406
-3.00515
-12.218
10.6018
1.61614
-4.85159
-0.443849
-0.0107752
-5.50835
-3.79611
5.38809
0.549234
11.1511
7.35494
-5.51417
5.76031
6.1622
6.22386
-0.169345
5.80008
-5.16475
5.29466
-2.28313
-3.01154
5.25422
-5.4219
-1.29763
-5.18692
3.88929
0.31323
1.83681
-1.54905
-2.05157
-0.512734
-1.94965
1.56905
0.989928
1.733
0.981198
1.72169
-2.94762
0.556118
2.3915
-1.96642
-1.85193
-3.57427
-1.05222
4.62649
5.55887
2.01918
-5.46384
-0.147709
2.72841
-2.70212
-0.707799
-2.86647
2.16506
-2.87286
-3.52568
-1.9087
5.43438
-3.37111
-0.462848
3.31677
0.55288
-3.82269
-2.08284
3.78358
0.33392
-3.12274
6.19281
-3.07008
-5.06308
2.5289
3.55761
4.54045
-4.78941
2.44431
2.3451
-1.23181
3.10111
1.15881
3.23432
-6.91536
5.16808
5.67655
3.11218
-6.08332
1.1438
-5.77156
8.55262
-7.45116
-1.10146
3.67902
4.8736
7.19657
5.51135
-5.7883
12.9849
-1.27151
-6.17965
7.04306
-3.93088
4.77311
-8.70399
-10.2845
4.10481
-10.069
12.3175
-2.24847
-3.43485
-8.65178
13.5038
-1.245
-12.2588
8.61697
-6.22035
-3.12239
9.34273
-7.00694
6.62354
-3.00711
-3.61643
-10.2538
-5.01533
9.88323
2.35442
-8.93264
12.7093
-0.190221
5.02266
-0.0841979
4.74939
4.56364
-6.13887
1.57523
2.4433
-5.45041
2.17717
-8.31604
-5.38856
10.0125
-4.62394
-8.0465
-7.65084
-0.395661
1.49687
11.2124
-7.91769
5.53635
2.38134
3.31421
0.592424
-3.38461
-0.432746
0.346867
4.4994
-4.84627
4.14057
4.21967
3.4063
1.0931
3.81229
2.1284
-3.85696
-0.287351
-4.1098
1.472
-1.73267
-3.64006
5.11206
-4.06523
0.425179
-2.71438
-3.56223
6.27661
-4.62343
3.04429
3.14852
5.10454
-4.95283
1.3906
-2.44319
-2.50964
2.67463
-4.4073
1.9513
3.16075
4.28006
0.576847
5.23905
4.77345
-7.65295
0.374029
8.59322
-7.33999
2.20909
6.62662
-7.74544
0.0945959
-6.6977
0.858932
-6.29497
-5.89785
5.12381
-6.7252
-3.58018
6.17303
0.584192
-6.24907
-0.395029
-5.95159
-2.83329
-6.38712
-3.05428
-6.05003
-8.84258
-1.62402
-7.21856
6.66991
-6.56458
-3.41488
7.30723
1.1238
-7.31481
7.30639
-7.38064
7.10208
0.0952171
3.62144
4.35649
1.88482
-2.38963
4.27445
-5.01792
7.18792
-8.35383
3.3359
3.86831
-6.47963
-4.48552
5.02309
4.04411
5.32873
8.92963
-10.5775
1.64788
-10.8883
12.1627
-1.27443
-16.6261
5.73778
-7.69645
2.70366
0.264417
2.7284
0.674254
2.40777
-3.08202
-2.29184
-2.30204
-2.26515
-3.30436
5.56951
1.10424
-3.32898
2.22474
-3.45162
4.55585
-0.07621
-3.25277
5.21961
-2.81184
5.48403
-3.52783
1.9562
3.22736
5.51792
-2.29056
4.24668
-1.67028
1.78251
-4.07306
-1.52185
-3.02077
5.08305
-3.25583
3.68101
-0.236782
3.91779
-4.01455
0.980493
-0.608245
3.61142
3.7763
4.18576
-3.09266
2.89246
-4.56273
-1.18061
-3.98589
-0.825133
-0.337788
-3.72429
4.06208
6.07835
-6.41614
-5.27194
9.59303
-4.32109
7.74387
-5.41328
-2.3306
-4.26233
-4.40538
3.86663
1.93345
9.67732
0.227501
-5.64078
-4.93725
-4.03768
3.23105
2.06361
-2.05263
3.66877
2.06341
-0.226601
0.581214
1.15178
1.93754
-1.35632
0.206936
1.7306
-1.34211
1.99416
0.734244
-2.07124
0.121592
-1.3056
3.47066
1.0859
-2.07583
0.719504
1.09815
-3.38128
4.70287
-2.39432
-2.30855
5.80102
1.14354
-3.53786
4.04338
-3.73015
2.26148
-3.3137
-1.27638
-5.00653
-3.40645
-2.46878
4.69352
-3.10073
5.1199
1.16784
-4.9722
6.14004
-3.51983
1.61113
-3.01325
3.7475
-1.03602
-1.97723
2.75383
2.68054
-2.88204
0.0155695
-0.128208
2.30731
-2.43552
-0.565547
-2.53197
-4.57118
4.9051
-2.10835
4.55266
2.1661
-1.91251
6.46517
1.81505
-3.72756
-3.24803
-3.71087
-1.38246
3.15799
-1.2775
-3.03725
-4.89393
3.17964
0.0546713
-6.82781
6.95368
-0.125876
-3.41825
-1.74983
5.42886
-6.24024
0.789829
-4.06307
2.89062
4.04943
4.1041
-11.7011
-0.557703
-6.5201
0.945637
-7.46574
5.81924
-3.70266
7.80747
-10.406
6.99113
-9.28221
6.706
-0.759735
6.85821
-5.28297
4.37358
-9.38891
-7.03448
5.89707
-4.32452
5.81288
-4.82799
10.6409
-5.01821
7.0173
3.62357
-1.72967
-5.21696
-6.37409
4.64441
0.643212
5.3926
4.94742
-2.81902
4.66007
2.23482
-4.67801
-2.17248
-6.54686
1.86885
-3.39834
-1.91856
3.78741
3.18597
3.7784
1.27777
-3.34565
7.33697
-7.73263
-2.71303
-3.18481
6.56812
-1.9237
4.37616
-7.56098
-1.91881
4.90432
-0.846454
-4.05787
0.785283
-4.36546
1.59171
-5.95717
5.13349
-5.52852
2.14795
-9.8444
-5.16685
-5.03309
-2.21809
-5.16255
-7.65267
5.43458
-1.91489
5.3915
-8.67525
7.8288
-3.48747
8.92205
-5.35778
-1.02935
5.75341
1.34866
10.2707
0.124163
-4.60968
-1.83205
3.9563
-2.12425
1.399
-3.60013
0.356172
2.45966
3.34136
-6.34895
-0.130673
-4.74036
-3.91101
7.95512
5.68201
11.7604
1.18284
9.16487
-1.20975
10.3477
4.11899
4.34219
-2.95244
4.60033
1.10964
4.44554
-0.857599
2.8138
1.8708
1.86555
0.836573
2.30181
1.47449
3.2823
0.200276
-2.10176
4.64517
-8.68285
-0.99561
-8.09834
1.12489
5.83967
-4.71478
3.16169
-1.09808
1.03745
0.204337
-1.82363
1.61929
-2.8072
-2.05023
-0.31963
-1.63971
2.35921
1.83095
-2.03958
-0.767617
0.326562
-3.73301
2.98714
-2.97157
-0.291022
5.84901
-2.70117
0.265652
-1.09004
-2.26632
-2.77905
2.65746
6.17744
0.287727
3.10736
5.19283
3.10999
0.290972
3.88576
-6.13423
-4.43029
-6.69193
-0.872696
4.55616
3.16764
8.04475
6.79121
4.86751
-2.69346
-10.4261
6.51319
-1.91286
5.23876
-1.18089
-4.77628
4.95578
2.23214
-5.53997
0.0114559
-4.76482
-6.67769
-0.566096
8.3949
-9.70462
8.67527
5.84198
1.37658
-4.35759
-0.675501
4.17
0.172193
10.5199
-1.18305
-6.83014
8.01319
-4.65662
3.66101
0.865964
2.80281
2.48526
1.38718
-5.44297
-10.1577
-1.8403
-1.54097
-4.14885
0.477637
-2.30859
6.29772
-2.63671
3.96712
5.37648
6.41393
-2.18694
-4.2292
6.50803
-2.54091
3.87302
)
;

boundaryField
{
    wall-4
    {
        type            calculated;
        value           uniform 0;
    }
    velocity-inlet-5
    {
        type            calculated;
        value           uniform -3.75095;
    }
    velocity-inlet-6
    {
        type            calculated;
        value           uniform -5.62643;
    }
    pressure-outlet-7
    {
        type            calculated;
        value           nonuniform List<scalar> 8(5.93925 5.85253 6.47706 6.93824 6.84816 6.79568 6.79076 6.87167);
    }
    wall-8
    {
        type            calculated;
        value           uniform 0;
    }
    frontAndBackPlanes
    {
        type            empty;
        value           nonuniform 0();
    }
}


// ************************************************************************* //
