/*--------------------------------*- C++ -*----------------------------------*\
| =========                 |                                                 |
| \\      /  F ield         | OpenFOAM: The Open Source CFD Toolbox           |
|  \\    /   O peration     | Version:  4.0                                   |
|   \\  /    A nd           | Web:      www.OpenFOAM.org                      |
|    \\/     M anipulation  |                                                 |
\*---------------------------------------------------------------------------*/
FoamFile
{
    version     2.0;
    format      ascii;
    class       volVectorField;
    location    "21";
    object      U;
}
// * * * * * * * * * * * * * * * * * * * * * * * * * * * * * * * * * * * * * //

dimensions      [0 1 -1 0 0 0 0];

internalField   nonuniform List<vector> 
918
(
(0.985053 -0.000652702 0)
(0.00476264 2.96626 0)
(-0.014073 1.5719 0)
(0.979825 0.00241888 0)
(-0.00325045 1.557 4.23541e-21)
(-0.00704358 2.9489 -7.9695e-19)
(0.853412 1.21489 3.05483e-19)
(0.411442 0.192755 -3.50354e-21)
(0.999904 -0.000331048 0)
(0.0743358 0.832639 0)
(-0.057703 1.01205 0)
(0.759307 -0.0116956 0)
(0.0115307 2.93009 0)
(0.00234566 2.79491 0)
(-0.0189419 3.16216 4.81312e-19)
(-0.00427273 1.43912 1.96646e-21)
(0.534339 0.0870504 2.18733e-19)
(0.174339 1.23045 2.68328e-19)
(0.962332 0.00393967 0)
(0.00718115 1.3063 0)
(0.138519 0.241849 -1.8879e-19)
(1.00217 -0.00521855 0)
(1.00079 -0.0100627 0)
(0.976098 -0.00643326 0)
(0.669585 -0.0328799 0)
(0.0191342 2.63082 0)
(-0.0150085 2.91025 2.60774e-19)
(-0.0242606 1.58994 0)
(-0.0318081 1.7296 0)
(-0.0251386 1.5832 0)
(-0.00303721 1.84924 0)
(0.00340347 1.58414 -3.28506e-21)
(-0.00358578 1.45693 0)
(-0.0204478 2.9875 -2.78091e-23)
(-0.0169909 3.0054 6.3308e-19)
(0.00201804 3.00017 0)
(0.870024 -0.0098179 0)
(0.425883 0.965612 -1.20842e-20)
(0.827498 1.2326 -4.18898e-19)
(0.974123 1.06668 3.95802e-19)
(0.694183 1.33253 -7.06603e-20)
(0.695092 1.32066 3.9962e-19)
(0.445388 0.27909 3.41621e-21)
(0.437211 0.182102 0)
(1.16209 0.585739 0)
(0.417519 0.288857 1.60632e-20)
(0.369769 0.191615 -1.6679e-20)
(0.919427 -0.00733412 0)
(1.0003 9.67149e-05 0)
(0.99991 0.000329874 0)
(1.00337 -0.00771495 0)
(1.00095 -0.00102841 0)
(1.0002 2.98704e-06 0)
(0.0427452 1.78954 -1.22467e-19)
(0.0429643 0.968206 0)
(0.0703623 0.94137 0)
(0.0109821 0.86456 0)
(0.000149728 0.744912 0)
(-0.00159769 1.51943 0)
(-0.0728623 1.05604 0)
(-0.0595077 0.859073 0)
(-0.0467488 1.19791 0)
(-0.0377181 1.13832 0)
(0.83934 -0.0033347 0)
(0.859599 0.00974094 0)
(0.771209 -0.00226547 0)
(0.853497 0.0143659 0)
(0.747074 -0.0120658 0)
(0.015355 3.00064 2.85507e-19)
(0.011705 3.00831 0)
(0.00649225 3.00262 0)
(0.014174 2.99719 3.1447e-24)
(0.00838478 2.95849 -4.31404e-19)
(0.0152133 2.98187 0)
(0.0112149 2.90368 0)
(0.0258208 2.92988 5.4561e-25)
(0.00459688 2.82521 0)
(0.0326228 2.91526 0)
(-0.00650821 2.74505 0)
(0.307411 3.5592 0)
(-0.14585 3.63707 0)
(0.137858 3.25452 -4.44279e-19)
(-0.00977667 2.99063 0)
(-0.0220967 1.82644 0)
(0.00683493 1.61586 -1.93923e-21)
(-0.00466828 1.44771 3.62071e-21)
(0.590065 0.155835 -7.52099e-20)
(0.527324 0.0637743 -7.3418e-20)
(0.578204 0.185272 -2.27285e-19)
(0.52015 0.118255 -1.53172e-19)
(0.173941 0.871707 0)
(0.255379 1.37088 -2.70905e-19)
(0.372834 1.33655 4.47778e-19)
(0.987531 0.00829268 0)
(0.941558 0.00560223 0)
(1.00031 0.000421931 0)
(1.00326 0.00948108 0)
(1.00285 0.00787542 -4.19154e-19)
(0.991816 0.00984078 3.19916e-19)
(-0.00890657 1.46696 0)
(-0.00337959 1.29222 0)
(-0.0344186 1.59813 0)
(-0.0198585 1.50596 0)
(0.00054182 1.33763 0)
(0.209854 0.255558 5.83129e-20)
(0.253213 0.235864 0)
(0.99342 -0.00810172 0)
(0.954561 -0.00600142 0)
(0.824378 0.0237131 0)
(0.792952 0.0362585 0)
(0.726389 -0.0254596 0)
(0.989578 -0.00100153 0)
(0.732897 0.0554658 0)
(0.584067 -0.0102577 2.91247e-19)
(-0.034969 2.8669 1.26019e-19)
(0.0437304 2.90815 0)
(0.0574783 2.88261 0)
(-0.00517349 2.69608 0)
(-0.0136257 2.98501 2.38128e-19)
(-0.0184132 2.8953 0)
(-0.0159563 2.98804 -7.57983e-19)
(-0.0132237 2.92537 2.63145e-19)
(-0.0279071 1.81248 0)
(-0.023662 1.8117 0)
(0.00324941 1.59855 1.01428e-22)
(0.00448961 1.57434 0)
(-0.00614312 1.44965 0)
(0.936771 -0.00718137 0)
(0.854697 -0.0104391 0)
(0.861785 0.00809534 0)
(0.948532 -0.00761466 0)
(0.882972 -0.0080506 0)
(0.536518 1.16235 1.06811e-20)
(0.589255 1.20524 0)
(0.387594 0.910847 2.03e-21)
(0.328271 0.769094 0)
(0.93752 1.10153 -1.13552e-19)
(1.04679 0.902331 2.34557e-19)
(0.382267 1.42267 0)
(0.546878 1.39931 0)
(0.54335 1.35661 0)
(0.109759 0.165541 -5.23413e-20)
(0.490093 0.265158 0)
(0.475099 0.163655 4.35804e-20)
(1.02144 0.953941 0)
(1.09184 0.801075 0)
(1.11457 0.744108 -2.07375e-19)
(1.14118 0.639138 0)
(1.18942 0.42013 2.50612e-20)
(0.957224 -0.00885307 0)
(0.962118 -0.0103668 0)
(0.901531 -0.00744952 0)
(0.984372 -0.00913448 0)
(0.974692 -0.00934096 0)
(0.937332 -0.00591265 0)
(1.00015 0.00214894 0)
(1.00086 0.00133075 0)
(0.999891 0.000916051 0)
(0.0118734 2.0171 7.27343e-20)
(0.102356 1.6967 0)
(-0.0320026 2.0556 7.88642e-20)
(-0.026222 1.8485 -3.60041e-20)
(0.134314 1.22359 -2.2219e-19)
(0.0687814 1.06529 0)
(0.0951471 1.07064 0)
(0.0119953 0.82267 0)
(-0.0079011 0.705301 0)
(-0.00841747 1.73993 8.76546e-22)
(-0.0861163 1.61732 0)
(0.0529011 1.69394 5.48766e-20)
(-0.0106999 1.44853 -9.36144e-20)
(-0.0249776 0.813176 0)
(-0.0587401 0.906338 0)
(-0.0369614 0.750248 0)
(-0.0362878 1.31409 0)
(-0.0221828 1.20928 0)
(0.931864 0.0161552 0)
(0.861155 -0.000680305 0)
(0.914655 0.00632184 0)
(0.831215 -0.0074337 0)
(0.804472 0.00564833 0)
(0.89924 0.0153297 0)
(0.87791 0.0130641 0)
(0.780902 0.00374372 0)
(0.00421163 3.06436 -2.35467e-21)
(0.0165399 3.05775 0)
(0.015288 2.96905 0)
(0.00883745 2.87638 0)
(0.967134 3.99933 0)
(1.31277 3.26014 4.92153e-19)
(0.0700818 3.08184 0)
(-0.0252214 2.91102 0)
(-0.0282193 1.80349 0)
(-0.0302822 1.82073 0)
(-0.0267797 1.80962 0)
(-0.00838701 1.83743 2.06102e-21)
(-0.0213979 1.83719 0)
(-0.0160687 1.83288 0)
(0.00626658 1.45338 -1.13607e-20)
(0.0221406 1.65373 -1.48628e-20)
(0.00948916 1.63282 -3.62178e-21)
(-0.00216897 1.45445 0)
(0.621944 0.12857 1.1102e-19)
(0.54692 0.0311156 -1.08106e-19)
(0.271482 1.51228 0)
(0.224045 0.641618 -8.2503e-20)
(0.184454 1.61059 -2.73288e-19)
(0.219048 1.14474 2.73838e-19)
(0.902479 0.00612344 0)
(0.967585 0.0104915 0)
(0.974591 0.0106898 0)
(0.92379 0.00609996 0)
(-0.0261967 1.39317 0)
(-0.0161891 1.44215 0)
(-0.0126629 1.2558 0)
(0.378819 0.293033 1.48391e-19)
(0.319647 0.27498 -1.81375e-19)
(0.319782 0.21558 0)
(1.1142 0.08563 -1.82522e-21)
(1.09656 0.0391522 0)
(1.02526 0.0382624 0)
(0.92918 0.00460539 0)
(0.646329 0.0961935 0)
(0.675303 0.0698931 -4.69433e-19)
(0.564117 0.0127266 1.7953e-19)
(0.00965103 2.98226 1.62797e-19)
(-0.0324085 2.86805 1.90911e-20)
(0.00210799 3.04963 -5.10201e-21)
(0.0206447 3.04329 1.9027e-19)
(-0.015335 2.99627 8.76419e-21)
(-0.012826 2.94943 -3.55727e-23)
(-0.0175872 3.01153 -1.6563e-19)
(0.0142125 3.0231 1.19197e-19)
(0.00668658 3.03675 -1.90053e-19)
(0.922089 -0.000963632 0)
(0.933327 -0.00255212 0)
(0.836418 -0.00827635 0)
(0.956805 0.011478 0)
(0.94349 0.0131537 0)
(0.881486 0.00649032 0)
(0.916966 0.0150223 0)
(0.926883 0.0152117 0)
(0.835412 0.00734004 0)
(0.757458 1.43534 1.52664e-19)
(0.80239 1.52926 0)
(0.256288 0.409534 1.17829e-20)
(0.201412 0.6264 9.35295e-20)
(0.29872 0.734571 -5.29391e-20)
(0.255628 0.614154 9.54674e-20)
(0.28844 0.716417 2.93373e-19)
(0.108467 0.198729 8.16611e-20)
(0.552195 0.220104 1.64335e-19)
(0.519063 0.244013 4.05514e-20)
(0.49918 0.146931 8.3088e-20)
(1.18046 0.475404 1.22221e-19)
(1.19549 0.271621 1.28478e-19)
(-0.0540227 2.0388 8.97507e-21)
(-0.0191635 1.824 0)
(0.977527 0.0292892 0)
(0.944906 0.0188295 0)
(0.889149 -0.00296552 0)
(0.0111338 3.07467 0)
(0.020856 2.94401 3.21623e-19)
(0.0172197 2.95643 0)
(0.00639359 2.8507 -3.20574e-19)
(0.00549682 3.09158 7.3984e-20)
(0.00589461 3.08165 0)
(0.889095 1.83534 -1.04707e-19)
(1.27709 2.39125 2.35666e-19)
(0.869639 1.94086 -5.93076e-19)
(0.0208822 2.98502 -1.17237e-19)
(0.0367954 3.00727 0)
(-0.0319952 2.88273 0)
(0.074774 1.65599 7.49429e-21)
(0.0470421 1.68101 5.82583e-20)
(0.0342957 1.45053 -3.89521e-22)
(0.281892 1.33263 2.63523e-19)
(0.195228 0.436919 -1.8043e-19)
(0.045286 1.94011 1.87916e-19)
(0.144318 1.82354 -2.39422e-19)
(0.170098 1.4333 3.70064e-20)
(0.00315777 3.11873 -4.27663e-19)
(0.0115599 3.119 4.85123e-19)
(-0.00926979 2.98092 2.04243e-19)
(-0.00432339 2.97821 -1.78262e-19)
(-0.021563 2.8821 -2.08129e-19)
(0.00770642 3.09949 -5.42263e-19)
(0.00115906 3.10448 5.47615e-19)
(0.227596 0.634045 0)
(0.179827 0.628575 -1.82237e-19)
(0.150797 0.253867 8.16273e-20)
(0.314397 0.828248 2.4671e-19)
(0.161188 0.230451 -3.78528e-19)
(1.1955 0.175852 -2.34315e-20)
(1.19547 0.318935 0)
(1.18174 0.126906 5.08494e-20)
(-0.050675 1.87619 9.41091e-22)
(-0.0444237 1.98002 0)
(-0.0636526 1.75481 0)
(0.334286 1.20165 -9.59537e-20)
(0.350768 1.02008 -2.03672e-19)
(0.176074 0.314797 3.48436e-19)
(1.00545 -0.0114305 0)
(1.00745 -0.00748958 7.68525e-20)
(-0.0286568 1.79528 0)
(-0.037316 1.80032 0)
(1.00202 0.00338303 7.74559e-22)
(1.0036 0.00983559 1.56979e-19)
(-0.00879556 1.84467 -2.75323e-21)
(-0.00491123 1.84601 0)
(0.0378467 3.18299 4.18438e-20)
(0.392118 3.49287 0)
(1.13259 0.635975 2.75032e-20)
(1.01348 0.0131734 -7.84709e-22)
(1.02072 -0.0110772 0)
(1.00174 -7.13237e-05 7.34651e-24)
(0.16561 1.24286 0)
(0.192373 2.57518 0)
(-0.240753 1.24087 0)
(-0.226796 2.54676 -7.14618e-20)
(-0.14443 2.17074 1.68764e-20)
(1.00694 0.0109311 1.28674e-21)
(1.05063 0.00784065 0)
(1.07449 0.0316447 0)
(-0.0312847 1.82335 0)
(-0.031325 1.90074 0)
(-0.0474279 1.74786 0)
(0.310923 1.44717 -1.81332e-19)
(1.01106 -0.00996357 0)
(1.00935 -0.0157355 0)
(1.00242 0.000365488 9.7236e-20)
(1.00537 -0.00488693 -1.15883e-19)
(1.00125 -0.00112422 0)
(-0.0403577 1.81098 0)
(-0.0315721 1.79353 0)
(-0.0329466 1.80326 0)
(-0.0385866 1.75253 0)
(-0.0295239 1.76778 0)
(-0.0333024 1.76399 0)
(1.03302 -0.0118677 0)
(1.02207 0.018141 -4.20082e-22)
(0.792691 1.25167 2.08676e-19)
(1.00223 0.000233645 -9.70458e-20)
(1.00394 0.00531594 1.16657e-19)
(1.00122 0.00213879 0)
(1.01358 0.0103674 9.42237e-20)
(1.00865 0.00860363 -1.17379e-19)
(1.00927 0.0156187 0)
(-0.028593 1.89714 0)
(-0.0154256 1.86846 3.90682e-22)
(-0.0142457 1.87006 5.35587e-22)
(1.19046 0.247331 -3.42697e-20)
(1.12844 0.0849612 0)
(0.0533394 3.07639 -2.09819e-19)
(0.0681223 2.84904 -1.67393e-20)
(0.149 3.19741 3.373e-19)
(0.143422 3.2272 4.13173e-21)
(0.136529 3.24159 0)
(0.0206177 3.13827 4.55695e-20)
(0.0803812 3.16217 2.01809e-19)
(0.072075 3.18892 -8.93235e-20)
(0.0257082 3.12831 0)
(0.670763 0.320333 0)
(0.603856 0.362107 0)
(1.08469 0.656438 -1.04955e-19)
(1.11078 0.798105 1.6134e-19)
(1.14706 0.544331 0)
(1.1947 0.490793 0)
(1.01638 0.0133561 -1.76165e-19)
(1.0148 0.0147887 2.19846e-19)
(1.02496 -0.01077 0)
(1.02316 -0.0127356 0)
(1.00676 0.0027132 0)
(1.01015 0.00327538 0)
(1.00486 0.00150911 0)
(1.00983 0.00589855 0)
(1.00824 0.00664283 0)
(1.00428 0.0041826 0)
(0.206035 1.24075 0)
(0.142514 1.07722 0)
(0.212588 1.33389 0)
(0.130245 1.33477 0)
(0.165054 2.58505 0)
(0.200391 2.62331 -9.03554e-20)
(0.0953188 2.65119 0)
(0.0869812 2.63259 -3.17935e-22)
(-0.0828899 2.7148 8.75959e-20)
(-0.205279 1.29973 0)
(-0.18826 1.34469 0)
(-0.228869 1.21575 0)
(-0.152934 1.05719 0)
(-0.421492 2.23409 1.02429e-19)
(-0.229705 2.31203 -2.85746e-20)
(-0.221689 2.53503 -7.85307e-20)
(-0.169543 2.41581 0)
(-0.135447 2.16759 -2.24189e-20)
(-0.0733592 2.0962 9.68472e-21)
(-0.455166 2.20212 -9.69796e-20)
(-0.339282 2.25239 3.64906e-20)
(-0.313875 2.39721 9.97356e-20)
(1.01767 0.0245768 1.72148e-19)
(1.01233 0.0112839 -2.11901e-19)
(1.00865 0.0209679 -1.7976e-19)
(0.991968 0.0107148 2.3046e-19)
(1.05071 0.00833099 0)
(1.03752 -0.0130679 0)
(1.07113 0.0398856 0)
(1.05633 0.0195804 0)
(1.0548 0.0136176 0)
(1.10795 0.0786572 0)
(1.08381 0.0482843 0)
(1.08855 0.0383988 0)
(-0.0237849 1.85059 -6.10657e-22)
(-0.03708 1.83995 0)
(-0.0259924 1.84031 0)
(-0.0417941 1.93102 1.81493e-21)
(-0.0322017 1.94639 3.50405e-23)
(-0.0679437 1.81719 3.10146e-21)
(-0.0474964 1.81078 -3.12488e-21)
(-0.0573547 1.77246 0)
(-0.0445288 1.79054 0)
(-0.0427731 1.79184 0)
(-0.0677025 1.72751 0)
(-0.0504441 1.67582 0)
(0.392059 1.46724 3.47652e-19)
(0.423194 1.48328 1.3609e-19)
(0.584086 2.4226 -6.30373e-20)
(0.408517 2.51646 1.79595e-19)
(0.341641 2.0921 -1.89291e-20)
(1.02073 -0.00874352 0)
(1.01516 -0.010039 0)
(1.01478 -0.0161607 0)
(1.00748 -0.00133892 0)
(1.00469 -0.00156391 0)
(1.00757 -0.00463742 0)
(1.00912 -0.00387728 0)
(1.01386 -0.00462293 0)
(1.02414 0.0163584 1.68133e-19)
(1.01842 0.0166055 -2.13233e-19)
(1.02528 0.0218799 -1.66915e-19)
(1.02019 0.0231513 2.09548e-19)
(0.764556 1.30201 0)
(0.700374 1.36015 2.53856e-19)
(0.859802 1.20461 1.48032e-19)
(0.915675 1.14832 -1.96876e-19)
(1.14795 2.61166 -2.45405e-19)
(0.83773 0.103087 1.13888e-19)
(1.12086 0.105188 0)
(1.17671 0.185332 3.09763e-20)
(1.16619 0.151896 1.32008e-21)
(0.981258 0.12255 0)
(0.168583 2.96338 3.22951e-20)
(0.126364 2.87059 -2.89249e-19)
(0.040698 2.36543 1.93339e-19)
(0.104523 0.109378 -7.58499e-20)
(0.33966 3.43256 -1.85021e-19)
(0.198262 3.32564 0)
(0.231154 3.36533 2.40787e-19)
(0.263271 3.04461 -2.63159e-19)
(0.366966 3.2061 0)
(0.00792416 3.12012 1.08458e-20)
(0.0183244 3.12908 -1.41383e-19)
(0.0166545 3.12482 2.07354e-19)
(0.0377225 3.13976 0)
(0.0358485 3.15146 0)
(1.18982 2.65428 0)
(0.524154 0.856248 -8.98961e-20)
(1.03944 0.972048 -8.18943e-20)
(0.943856 1.0592 0)
(0.787667 0.93555 2.27086e-20)
(1.02707 0.864983 1.12883e-20)
(0.387314 0.455655 -2.15888e-19)
(0.701015 0.336187 -8.58522e-21)
(0.691245 0.274368 8.71864e-20)
(0.611208 0.407541 6.99022e-21)
(0.547928 0.379639 -2.88468e-19)
(0.676373 0.360721 0)
(0.711706 0.421913 1.4314e-19)
(0.709569 0.416518 0)
(0.637854 0.397029 0)
(0.625066 0.324009 0)
(0.765227 0.582311 4.95714e-20)
(1.18177 0.271379 1.76832e-20)
(1.19004 0.395527 0)
(1.21074 0.344841 0)
(0.766732 0.199684 1.31279e-19)
(0.82093 0.52357 -7.13157e-20)
(0.738962 0.495966 1.16125e-19)
(0.918337 0.415443 -1.0657e-19)
(1.02038 0.0144931 1.14778e-19)
(1.01817 0.0142766 -1.17956e-19)
(1.01526 0.0168252 0)
(1.03459 -0.00809732 0)
(1.02907 -0.00939916 -1.05143e-19)
(1.02704 -0.0127736 1.04172e-19)
(1.02545 0.00793125 0)
(1.02408 0.0123121 0)
(1.01132 0.0038335 0)
(1.01438 0.00910715 0)
(1.01495 0.00351854 0)
(1.01384 0.00194451 0)
(0.150998 1.04121 0)
(0.0627997 0.940502 0)
(0.269213 1.37187 1.65906e-19)
(0.274821 1.44741 1.07521e-19)
(0.20381 1.4262 2.43283e-19)
(0.211422 1.42625 -3.87119e-19)
(0.219522 1.40251 0)
(0.201906 1.60799 1.02899e-19)
(0.238451 1.61137 0)
(0.331765 2.03822 2.73543e-20)
(0.350272 2.38982 8.5968e-20)
(0.203536 1.46477 -9.15204e-20)
(0.240878 1.37872 7.94476e-20)
(0.225108 1.37864 -6.36346e-20)
(0.248839 1.32898 1.32028e-19)
(0.186796 1.59131 0)
(0.277299 1.60693 -8.01513e-20)
(-0.00540476 2.52192 7.37904e-20)
(-0.0659288 2.73459 0)
(0.111709 2.51629 -1.21082e-19)
(0.0261895 2.58879 0)
(0.0508667 2.69897 -4.84915e-22)
(-0.0276624 2.73845 0)
(-0.406483 1.55011 1.42472e-19)
(-0.450108 1.69237 0)
(-0.258978 1.32993 0)
(-0.321592 1.33424 -1.60337e-19)
(-0.228612 2.63626 -3.54625e-20)
(-0.165798 2.7233 -1.19483e-19)
(-0.183421 2.68596 -7.55594e-22)
(-0.412035 2.02368 -1.48188e-20)
(-0.463703 1.98549 -3.44099e-20)
(-0.159706 1.4409 0)
(-0.10968 1.46905 0)
(-0.161174 1.87089 -3.06721e-19)
(-0.212704 1.40715 -2.98116e-19)
(-0.266669 1.66373 3.78121e-19)
(0.101855 1.83945 0)
(-0.0821535 1.87799 -8.30038e-21)
(-0.0730369 1.91261 2.66202e-21)
(-0.0858486 1.93476 -6.04355e-22)
(-0.337601 1.92186 1.7686e-20)
(-0.140161 2.03314 8.18423e-22)
(-0.177299 2.09918 2.67329e-21)
(1.02296 0.0246977 -1.11998e-19)
(1.02076 0.0242843 1.12694e-19)
(1.01654 0.0212374 0)
(1.00601 0.0482665 1.6352e-19)
(0.993911 0.0343807 -1.92593e-19)
(0.964703 0.0203144 2.23951e-19)
(1.00523 0.0817219 -2.12571e-20)
(1.03889 -0.0109828 0)
(1.04078 -0.00887625 9.42643e-20)
(1.03247 -0.0217716 -9.41859e-20)
(1.05665 0.0435111 -5.11013e-21)
(1.0551 0.0254484 4.57794e-20)
(1.05426 0.0494997 0)
(1.04892 0.0422312 -1.70893e-20)
(1.03965 0.0264022 0)
(1.03592 0.0231673 0)
(1.02837 0.0118052 0)
(1.02776 0.0164491 0)
(1.04706 0.0268615 3.5598e-20)
(1.04706 0.0188782 -8.07304e-20)
(1.0505 0.0273711 -3.60401e-20)
(1.0484 0.027919 -4.17597e-20)
(1.05344 0.0567218 7.5024e-20)
(1.0751 0.0503786 0)
(1.08191 0.0924647 0)
(-0.0757674 1.87411 -3.92389e-21)
(-0.0486366 1.84305 -5.46226e-22)
(-0.0581334 1.85085 0)
(-0.0509326 1.87716 3.96835e-21)
(-0.0301397 1.85508 1.10496e-21)
(-0.0362494 1.86559 -7.27619e-22)
(-0.0599393 2.06626 -1.23501e-20)
(-0.090533 1.96572 -3.08669e-22)
(-0.107202 1.99482 1.08918e-21)
(-0.04055 1.99157 3.02162e-22)
(-0.0396127 2.01076 -6.99101e-23)
(-0.090012 1.7921 1.34616e-22)
(-0.0879812 1.81965 4.38548e-21)
(0.382388 1.38759 -1.74651e-19)
(0.363261 1.37912 -1.71709e-19)
(0.648174 1.41284 -2.44988e-19)
(0.522919 1.47585 -1.32096e-19)
(0.574666 1.45268 0)
(0.578938 2.3955 5.22039e-20)
(0.646508 2.38088 9.34528e-20)
(0.405429 2.49195 3.42305e-20)
(0.410344 2.55642 -5.75771e-20)
(0.527384 2.52305 1.02644e-19)
(0.53726 2.43539 0)
(0.486313 2.478 -1.46519e-19)
(0.245766 2.54755 2.57654e-19)
(0.346909 2.53486 -2.81322e-20)
(0.289214 2.60854 -3.87817e-19)
(0.904071 2.36637 9.19187e-20)
(0.810266 2.3601 0)
(1.01044 0.000442088 3.80024e-21)
(1.01507 -0.00575342 -3.16846e-21)
(1.01793 -0.00390496 -5.64525e-20)
(1.01513 -0.000784121 5.6933e-20)
(1.01233 0.000905178 0)
(0.618426 1.2488 0)
(0.612044 1.16169 0)
(0.717658 1.06553 0)
(0.617939 1.10569 0)
(1.17716 2.62462 2.56569e-20)
(1.05907 2.36075 0)
(0.843931 2.23759 -7.42628e-22)
(0.819665 2.48136 0)
(0.910402 2.56424 1.1139e-20)
(0.945444 2.52314 -7.25519e-21)
(0.844183 0.148288 0)
(0.815926 0.145885 3.26226e-20)
(0.925783 0.122883 1.67676e-19)
(0.866043 0.119698 -6.72167e-20)
(0.853819 0.0634602 -2.02441e-19)
(1.02807 0.214075 -9.59199e-20)
(0.955459 0.280492 -6.46974e-21)
(0.899938 0.265326 1.51482e-19)
(0.968769 0.199176 1.13264e-19)
(0.936238 0.156498 -2.09889e-19)
(0.911605 0.170635 2.70925e-20)
(0.932616 0.230061 -5.32379e-20)
(0.913164 0.193494 0)
(0.968448 0.157534 1.00205e-19)
(1.00978 0.163789 0)
(1.003 0.193457 0)
(1.06833 0.109724 3.18856e-20)
(1.03859 0.157335 -5.5656e-21)
(1.02556 0.216073 -1.65101e-20)
(1.06423 0.19278 0)
(1.02457 0.0262224 8.58403e-20)
(1.04178 0.0467112 1.00468e-19)
(1.03996 0.0315897 -8.43111e-20)
(1.03769 0.0515711 -6.78146e-20)
(1.01682 0.053397 -1.15366e-19)
(0.974867 0.122623 0)
(0.987641 0.0767558 0)
(0.970494 0.0440652 -8.06983e-20)
(0.935244 0.0571175 3.35001e-20)
(1.02309 0.0810205 9.65011e-20)
(1.04044 0.107839 -9.68804e-20)
(1.04611 0.132615 8.68414e-20)
(1.00705 0.126361 0)
(1.04801 0.0965036 0)
(1.03764 0.0769649 -4.04937e-20)
(1.03448 0.0800551 -7.71126e-20)
(0.571888 1.08138 -4.2416e-20)
(0.626182 1.43274 7.80711e-20)
(1.15935 2.76071 4.89138e-20)
(1.23711 3.08698 -3.49189e-20)
(1.24421 2.72422 2.73352e-19)
(1.27701 2.72256 -1.64799e-19)
(1.16144 2.36076 8.92995e-21)
(1.22445 2.98259 8.78841e-20)
(1.24346 2.953 -9.74649e-20)
(1.24256 3.24379 -1.42224e-19)
(1.36624 2.98374 1.66404e-19)
(1.30841 2.90584 0)
(0.521799 0.862417 -4.81399e-21)
(0.139003 1.28307 1.60816e-19)
(0.543372 0.530323 1.44787e-19)
(0.354238 0.293072 1.52266e-19)
(0.556275 0.429215 1.62396e-19)
(0.576001 0.48421 -2.55226e-19)
(0.56501 0.517907 2.09576e-19)
(0.518706 0.458552 -8.56913e-20)
(0.460843 0.386106 1.94898e-19)
(0.772607 0.257862 -7.35075e-20)
(0.727009 0.300215 0)
(0.718957 0.244984 4.11489e-21)
(0.729818 0.508216 7.31949e-20)
(0.706615 0.47018 -2.7156e-19)
(0.621177 0.488508 6.56798e-21)
(0.642577 0.459979 0)
(0.635313 0.735253 6.00633e-20)
(0.794202 0.75632 1.54654e-20)
(0.711929 0.842253 -2.17914e-20)
(0.833314 0.78608 -4.66789e-21)
(0.864442 0.819876 6.20002e-21)
(0.871138 0.823731 -6.37046e-21)
(0.813431 0.614286 -8.5053e-20)
(0.880216 0.686322 4.35089e-21)
(0.936721 0.693719 0)
(0.918403 0.662104 -5.65999e-21)
(0.982691 0.297327 2.29702e-20)
(1.07524 0.272514 2.46375e-21)
(1.0125 0.247969 3.86343e-20)
(0.970899 0.347587 -5.46395e-20)
(1.01647 0.40159 0)
(1.0488 0.385129 0)
(0.890457 0.350005 2.97238e-21)
(0.826693 0.289469 0)
(0.850796 0.27615 7.82974e-20)
(0.88601 0.272929 -3.57936e-21)
(0.907316 0.416034 2.91645e-19)
(0.86755 0.472311 7.49461e-20)
(0.874366 0.441362 -9.80368e-20)
(0.801622 0.424896 1.05214e-19)
(0.790317 0.426815 7.2024e-20)
(0.756338 0.412292 -7.01444e-20)
(1.02727 -0.00200227 9.05891e-20)
(1.01975 -0.000527157 0)
(1.01836 0.000212992 6.07673e-20)
(1.02129 -0.00155448 -1.36076e-19)
(1.02157 0.00387661 6.60571e-20)
(1.02102 0.0101447 -1.39285e-19)
(1.02239 0.00946419 0)
(1.02117 0.0100499 -2.92209e-20)
(1.01655 0.00741738 7.31402e-20)
(1.01721 0.0102908 -3.71969e-20)
(1.01783 0.00946347 2.72604e-20)
(-0.147927 1.079 0)
(-0.212104 1.27314 0)
(-0.0288125 1.01834 0)
(-0.0478576 0.913687 0)
(0.2611 1.33172 -4.22945e-19)
(0.265699 1.26324 1.42296e-19)
(0.291405 1.55589 8.27652e-20)
(0.281627 1.33231 -8.08361e-20)
(-0.0486135 1.48164 3.55034e-19)
(0.0377448 1.47496 -2.64797e-19)
(0.237058 1.25644 3.96889e-22)
(0.156922 1.16511 2.72598e-19)
(0.0389637 1.14216 3.94971e-20)
(-0.0731114 1.19965 4.0528e-20)
(0.131007 2.4624 1.27518e-19)
(0.116547 2.48361 0)
(0.222542 2.12151 -1.01264e-20)
(0.23388 1.78618 -4.80107e-20)
(0.230271 2.09777 9.08653e-21)
(0.203928 2.44476 0)
(0.263319 2.41026 -5.35758e-20)
(0.29863 2.4129 3.79229e-20)
(0.211172 2.0199 1.70293e-20)
(0.175219 2.20319 1.23766e-20)
(0.173951 2.34032 0)
(-0.20914 2.32891 3.22281e-19)
(-0.286463 2.59093 2.09222e-19)
(-0.331833 2.44818 0)
(-0.145706 2.6468 -8.68734e-21)
(-0.0546432 2.57184 -1.50715e-19)
(-0.371836 1.50751 -1.06699e-20)
(-0.279524 1.55071 1.64465e-19)
(-0.285996 1.6279 -3.68023e-20)
(-0.41299 1.61443 -6.69259e-20)
(-0.415689 1.54678 0)
(-0.255036 1.62133 0)
(-0.0955343 1.65728 -4.37039e-21)
(-0.152791 1.69582 1.99126e-21)
(-0.200407 1.64637 0)
(-0.122639 1.55712 -4.4964e-21)
(-0.0670342 1.58207 7.02327e-21)
(1.03766 -0.000533055 0)
(1.04161 -0.00304818 -8.79654e-21)
(1.04722 0.013907 -6.39912e-20)
(1.05044 0.013095 0)
(1.05137 0.0113704 0)
(1.04214 0.00395168 -2.80324e-21)
(1.03627 0.00399351 1.06691e-19)
(1.03839 0.0119322 1.30227e-19)
(1.02957 0.019432 0)
(1.02912 0.0191344 0)
(1.04325 0.0204602 6.48105e-20)
(1.03522 0.020083 0)
(1.03329 0.0192402 0)
(-0.150539 1.88797 0)
(-0.114346 1.82093 5.04882e-22)
(-0.124132 1.87109 2.43313e-21)
(-0.123042 1.71116 0)
(-0.14554 1.79822 -1.29864e-21)
(-0.110154 1.77394 -2.05898e-21)
(-0.10422 1.75437 0)
(0.391414 1.68541 0)
(0.366402 1.30019 2.71292e-19)
(0.296874 1.35767 0)
(0.431607 1.27062 -3.49109e-19)
(0.472415 1.43777 0)
(0.442623 1.38251 1.65055e-19)
(1.01593 2.69957 -1.72632e-21)
(0.937262 2.40486 -1.1277e-19)
(0.863339 2.14574 1.52612e-19)
(0.832319 2.35284 5.29946e-20)
(0.836077 2.52167 0)
(0.893459 2.51226 0)
(0.86754 2.36858 0)
(0.896679 2.31527 -1.8488e-19)
(0.69026 2.49729 -8.48345e-21)
(0.803193 2.49161 -5.04457e-21)
(0.806667 2.46074 3.99591e-21)
(0.674825 2.36033 0)
(0.776629 2.35963 0)
(0.737269 2.36631 -9.24563e-20)
(0.762001 2.5072 0)
(0.586773 1.08847 0)
(0.48005 0.930695 8.84457e-21)
(0.536908 0.951279 -3.03022e-22)
(0.512545 1.05001 0)
(0.518616 1.01068 -1.26161e-20)
(0.733455 0.87176 7.67289e-21)
(0.752859 0.995237 0)
(0.724266 0.941577 -2.74224e-20)
(0.604532 1.02966 0)
(0.609998 0.932895 0)
(1.15769 2.77382 2.42835e-20)
(1.13598 2.83992 5.2807e-20)
(0.935638 2.36625 -1.19113e-19)
(0.896359 2.33974 1.36073e-20)
(1.11776 2.73984 0)
(1.06684 2.70944 -1.68528e-20)
(1.07323 2.48364 -3.34858e-20)
(0.965773 2.22174 -1.33143e-20)
(0.476457 1.37511 0)
(0.476327 1.06296 3.71529e-20)
(0.536464 1.13027 0)
(0.857125 0.216274 0)
(0.818813 0.178565 0)
(0.78066 0.156989 0)
(0.849029 0.220012 -1.23737e-19)
(0.790874 0.213474 7.76994e-20)
(0.941046 0.0507194 -6.95257e-20)
(0.950992 0.100209 0)
(0.923953 0.104175 3.12709e-20)
(0.889198 0.0821578 1.28423e-19)
(0.882952 0.0469433 -7.91031e-20)
(1.17632 3.37919 -4.23132e-19)
(1.2279 3.29524 0)
(1.14356 3.39693 -8.02528e-19)
(0.64251 3.55531 7.07397e-19)
(0.854486 3.11469 1.5051e-19)
(0.493084 0.888566 8.85914e-20)
(0.41939 0.874979 0)
(0.343755 0.570425 -3.27766e-20)
(0.438541 0.699481 1.4715e-19)
(0.543305 0.538219 -4.44461e-20)
(0.525926 0.559592 5.07406e-20)
(0.659814 0.528438 1.06829e-19)
(0.686278 0.534487 0)
(0.63763 0.626144 0)
(0.59383 0.553984 0)
(0.931677 0.578054 -2.02481e-20)
(0.868363 0.520195 -7.18784e-20)
(0.888738 0.550438 3.3872e-20)
(0.924838 0.496161 -5.27768e-20)
(1.0247 0.468353 0)
(1.01457 0.550673 -2.10827e-21)
(0.822655 0.388612 -1.58573e-19)
(0.824793 0.375193 -1.79255e-19)
(0.780098 0.378698 1.23875e-19)
(0.774239 0.356272 -1.39407e-19)
(0.8226 0.316614 -1.04322e-19)
(0.77655 0.316727 1.28468e-19)
(1.02613 0.00418094 -6.83601e-20)
(1.02606 0.00415558 1.40755e-19)
(1.03017 -0.00196122 8.58507e-20)
(1.03095 -0.00266213 -1.03583e-19)
(1.03577 -0.00111093 0)
(1.03272 0.000648533 -1.68163e-19)
(0.165243 1.85851 -5.46391e-20)
(0.160344 1.80072 0)
(0.235132 1.81988 -2.62297e-19)
(0.230842 1.78697 2.33785e-19)
(0.26973 1.65019 -1.54552e-19)
(0.304963 1.65485 0)
(-0.303395 1.91671 0)
(-0.271538 1.74625 1.84108e-21)
(-0.207435 1.74622 -1.66091e-21)
(-0.173183 1.80097 2.77798e-21)
(-0.186631 1.90579 -1.61562e-21)
(-0.221698 1.914 -6.59832e-22)
(0.477392 1.38404 1.79425e-19)
(0.485862 1.3892 -1.89601e-19)
(0.444569 1.27291 1.76337e-19)
(0.435093 1.28975 -1.0769e-20)
(0.608399 1.29005 0)
(0.535079 1.36782 2.23839e-19)
(0.546922 1.38234 -2.1684e-19)
(0.45109 1.26123 -1.70914e-19)
(0.493223 1.22093 0)
(0.533853 1.17845 0)
(0.655634 2.45591 1.27311e-20)
(0.677765 2.47656 2.06654e-19)
(0.714565 2.49285 -1.41133e-19)
(0.623288 2.48889 -4.6727e-20)
(0.571341 2.58178 4.00733e-20)
(0.529131 2.56052 -1.16321e-19)
(0.953647 2.36057 -8.19947e-20)
(0.997562 2.38568 0)
(0.886301 2.13194 -1.11392e-19)
(1.03545 2.69084 0)
(1.0348 2.67742 0)
(0.61505 2.2696 8.20176e-20)
(1.03013 3.16528 1.95282e-19)
(0.898574 3.02709 -1.47432e-19)
(0.297944 0.970981 0)
(0.349777 0.827196 -6.19353e-20)
(0.477807 0.784251 -2.39194e-20)
(0.420692 2.01636 0)
(0.482703 2.79273 -1.06565e-19)
(0.443474 2.58121 0)
(0.65108 0.667208 -1.23148e-19)
(0.725975 0.658527 1.5226e-19)
(0.763678 0.598529 -1.47366e-19)
(0.656327 0.631555 -1.84253e-20)
(0.710096 0.578075 -7.44147e-20)
(1.01669 2.77557 -1.47474e-19)
(1.04248 2.84447 1.39733e-19)
(0.669653 2.18398 3.31823e-20)
(0.589218 1.73396 -3.30601e-20)
(0.715185 1.92975 5.5259e-20)
(0.995926 2.48229 -2.33434e-20)
(0.996204 2.48177 -9.13124e-20)
(0.683269 1.90677 -3.99658e-21)
(0.464429 1.35438 -3.39244e-20)
)
;

boundaryField
{
    wall-4
    {
        type            noSlip;
    }
    velocity-inlet-5
    {
        type            fixedValue;
        value           uniform (1 0 0);
    }
    velocity-inlet-6
    {
        type            fixedValue;
        value           uniform (0 3 0);
    }
    pressure-outlet-7
    {
        type            zeroGradient;
    }
    wall-8
    {
        type            noSlip;
    }
    frontAndBackPlanes
    {
        type            empty;
    }
}


// ************************************************************************* //
