/*--------------------------------*- C++ -*----------------------------------*\
| =========                 |                                                 |
| \\      /  F ield         | OpenFOAM: The Open Source CFD Toolbox           |
|  \\    /   O peration     | Version:  4.0                                   |
|   \\  /    A nd           | Web:      www.OpenFOAM.org                      |
|    \\/     M anipulation  |                                                 |
\*---------------------------------------------------------------------------*/
FoamFile
{
    version     2.0;
    format      ascii;
    class       volScalarField;
    location    "18";
    object      p;
}
// * * * * * * * * * * * * * * * * * * * * * * * * * * * * * * * * * * * * * //

dimensions      [0 2 -2 0 0 0 0];

internalField   nonuniform List<scalar> 
918
(
0.261187
0.940679
0.0107761
0.259969
-0.00128308
0.908372
-0.807075
0.440909
0.240893
-0.40335
-0.00542025
0.230097
0.768985
0.535041
-1.42264
0.0084746
0.394162
-0.686841
0.239936
-0.00056786
0.5182
0.247442
0.250491
0.24096
0.302403
0.529874
0.649021
0.00591878
-0.00177664
-0.00289825
0.0043292
-0.00707959
0.000664155
0.791736
0.842346
0.864881
0.210619
0.0531395
-0.640354
-0.731316
-0.716514
-0.855235
0.430207
0.434794
-0.457531
0.446432
0.462158
0.228976
0.24015
0.241021
0.242396
0.241293
0.242764
0.15616
-0.435088
-0.461011
-0.368414
-0.315195
0.0344427
-0.0162567
-0.0340541
0.00839065
0.00882923
0.1685
0.226692
0.225403
0.235818
0.245871
0.879453
0.850463
0.87609
0.79302
0.807893
0.746687
0.718481
0.555814
0.576604
0.520284
0.509802
-1.85223
-2.82196
-0.829289
-0.572287
0.000376541
0.0132783
0.0188625
0.381419
0.39136
0.39103
0.404883
0.786204
-0.675144
-0.816449
0.239765
0.238677
0.246916
0.247241
0.244394
0.242483
0.00851505
0.0147324
-0.0112261
-0.00259041
-0.00382618
0.499944
0.495025
0.242508
0.239201
0.252377
0.273539
0.263595
0.0109342
0.311784
0.3337
0.329987
0.509289
0.508158
0.515069
0.623494
0.585682
0.686738
0.710265
0.0127274
0.00363995
0.00592825
0.00468954
0.00590487
0.206568
0.198826
0.223132
0.214259
0.216578
-0.0298667
-0.162874
0.145246
0.17148
-0.546218
-0.627766
-0.720303
-0.754553
-0.87917
0.270805
0.416838
0.420801
-0.46334
-0.391995
-0.537457
-0.307156
-0.384408
0.220327
0.226653
0.221403
0.236052
0.230893
0.232534
0.244309
0.241423
0.242946
0.221068
0.319858
0.100711
0.0858227
-0.557626
-0.470061
-0.548374
-0.250086
-0.193637
0.0229827
0.0186858
0.0171742
0.0317425
-0.144003
-0.0614687
-0.102241
0.0142438
0.0134932
0.161977
0.153572
0.177279
0.183864
0.21825
0.219122
0.22278
0.221186
0.668772
0.691302
0.699622
0.67319
-3.84996
-6.92636
-0.239463
-0.0950921
0.00300517
0.00265174
0.00175102
0.00396027
0.00268257
0.00111808
0.0212087
0.0205221
0.0193792
0.0231079
0.364045
0.371025
0.729986
0.71573
0.674555
0.663257
0.227541
0.229674
0.235476
0.230899
0.0178655
0.0174
0.0175541
0.460921
0.481464
0.47898
-0.0235297
-0.111732
0.0592381
0.0859981
0.351993
0.337517
0.355515
0.39381
0.42923
0.716665
0.734553
0.734988
0.743058
0.788154
0.801103
0.766714
0.188704
0.195607
0.192123
0.226793
0.22447
0.225024
0.218495
0.221748
0.217547
-0.335492
-0.697174
0.258062
0.263374
0.220364
0.231136
0.345804
0.408686
0.39762
0.407992
0.41217
-0.240032
-0.312825
0.0379953
0.0136275
0.11132
0.142314
0.125945
0.639703
0.601501
0.651367
0.624687
0.585211
0.611249
-0.737691
-1.99543
-1.24275
0.270319
0.0756423
0.166234
0.0332325
0.0190868
0.0247501
0.668006
0.754871
0.380968
0.596236
0.584634
0.471697
0.504716
0.558527
0.480624
0.516416
0.553395
0.536751
0.242645
0.256499
0.220949
0.475831
0.534931
-0.12899
-0.174275
-0.243362
-0.0107965
-0.0090448
0.0086713
0.717073
0.60192
0.680824
0.238775
0.239361
0.0127904
0.0241057
0.243213
0.243274
0.00635679
0.0063386
0.148017
-1.12608
-0.144094
0.231211
0.222396
0.238745
-0.443745
0.0662145
-0.0275886
0.111605
0.0697604
0.229826
0.178404
0.145135
0.00661274
0.0162005
0.0042116
-0.515714
0.236367
0.234583
0.238418
0.239501
0.240149
0.00745876
0.00887803
0.00637144
0.00498711
0.00544272
0.00118748
0.204753
0.21847
-0.460942
0.238269
0.240586
0.240291
0.233103
0.238751
0.236797
0.0125059
0.00770814
0.00736215
-0.0334197
0.0817741
0.406552
0.523049
0.361838
0.127959
-0.122307
0.300056
0.370022
0.266631
0.433917
0.400391
0.432148
-0.0822412
-0.236123
-0.0760989
-0.135634
0.229146
0.227533
0.220895
0.218358
0.233694
0.232047
0.236192
0.23334
0.236054
0.237623
-0.459001
-0.362554
-0.449314
-0.451859
0.03168
0.308617
-0.0915003
0.0398673
-0.000214894
-0.0114736
0.00165992
-0.0500722
-0.0593547
0.0112475
0.0577838
0.085463
0.0417785
0.0611138
0.0245986
0.00422218
0.0307126
0.00708477
0.224416
0.221115
0.22864
0.235629
0.18575
0.188548
0.160046
0.176133
0.165406
0.109962
0.142577
0.121959
0.00684692
0.00786416
0.00576681
0.0195124
0.0206143
0.00803853
0.00791845
0.0123909
0.00838985
0.0075092
0.00674623
0.0119882
-0.473455
-0.581225
0.690742
0.639996
-0.0621632
0.225501
0.232001
0.22872
0.233169
0.236508
0.237406
0.235267
0.231563
0.219413
0.221737
0.217735
0.216504
-0.398747
-0.540231
-0.361342
-0.416081
-0.159391
0.343801
0.0928541
0.0230718
0.024553
0.237376
0.646775
0.43055
0.461725
0.500991
-0.655134
-0.259267
-0.583582
0.007806
-0.179392
0.403015
0.457353
0.482577
0.425346
0.373717
-0.539964
0.222879
-0.326693
-0.286464
-0.0901991
-0.191315
0.45642
0.384942
0.393584
0.419985
0.444381
0.390444
0.371486
0.368949
0.409374
0.412709
0.207004
0.00107755
-0.0542558
-0.0839555
0.375269
0.247467
0.301431
0.223044
0.223555
0.226886
0.225214
0.208917
0.216403
0.212304
0.216046
0.219588
0.229697
0.229247
0.224802
0.227354
-0.2948
-0.257207
-0.431553
-0.437427
-0.464081
-0.503534
-0.414597
-0.526005
-0.655737
-0.0126262
0.00725535
-0.423038
-0.371392
-0.379964
-0.3521
-0.163359
-0.0744994
-0.200339
-0.00455645
-0.168168
-0.142191
0.00700767
-0.0118523
-0.0276138
-0.045215
-0.117704
-0.0534873
0.0639331
0.00606394
0.0300603
0.0239326
0.0194708
0.00537168
0.0110251
-0.155398
-0.1605
-0.122985
-0.207581
0.0170799
0.0200014
0.0229258
0.0266614
0.0347066
0.0350011
0.21665
0.21759
0.216462
0.232255
0.243184
0.257959
0.226503
0.203769
0.195915
0.197127
0.174957
0.182988
0.180513
0.191191
0.208353
0.21638
0.214249
0.21745
0.202285
0.203776
0.192747
0.195801
0.177316
0.159669
0.149376
0.0130584
0.00807725
0.00886001
0.0101935
0.00795948
0.00867997
0.0345651
0.0293151
0.0338633
0.0258279
0.0227795
0.0140915
0.0132412
-0.383731
-0.302817
-0.485643
-0.520716
-0.59129
0.594587
0.707656
0.533523
0.296502
0.323869
0.539346
0.670982
0.286654
0.451323
0.546686
0.230446
0.493937
0.229884
0.229716
0.227642
0.226563
0.227748
-0.298877
-0.192818
-0.190616
-0.130264
-0.0145094
0.107126
-0.000582817
-0.148883
-0.00104108
0.00767709
0.336987
0.352862
0.29691
0.32424
0.323169
0.153458
0.224831
0.281282
0.237759
0.275385
0.295685
0.266167
0.288775
0.238619
0.197387
0.199086
0.147925
0.158669
0.137922
0.12324
0.219048
0.19918
0.208175
0.2009
0.220831
0.249482
0.241973
0.265901
0.279735
0.208921
0.171595
0.177937
0.206293
0.170199
0.182249
0.195312
-0.0691771
-0.133131
-0.107837
-0.404011
-0.306277
-0.381234
-0.415027
-0.304014
-0.00738337
-0.76676
-0.810739
-1.37334
0.164815
0.70081
0.414032
0.352161
0.442383
0.413797
0.412021
0.459007
0.462576
0.363001
0.380496
0.38282
0.334417
0.359434
0.392382
0.390027
0.215817
0.0882536
0.0745213
0.047969
-0.0647268
-0.0325933
0.166588
0.0814889
0.0139849
0.0298917
0.189483
0.091497
0.152205
0.176507
0.100148
0.0741471
0.259748
0.332329
0.319913
0.295847
0.215108
0.225874
0.253813
0.286536
0.312058
0.348418
0.218247
0.222366
0.223509
0.22191
0.217972
0.220829
0.220716
0.223617
0.22466
0.227336
0.226496
-0.100923
-0.134407
-0.211476
-0.140762
-0.534919
-0.575834
-0.592185
-0.512828
-0.213826
-0.264602
-0.413891
-0.31649
-0.244656
-0.206644
-0.38265
-0.356635
-0.339464
-0.44224
-0.0728284
0.0547422
0.156562
0.0737307
-0.116342
-0.0999379
-0.0535485
-0.101351
-0.00338196
0.0035152
-0.0507302
-0.0985005
0.0108133
0.00273104
-0.0014164
0.00359428
-0.00413418
0.00378438
0.0138502
0.0122078
0.0123877
0.0119851
0.0144066
0.207383
0.200527
0.199068
0.195821
0.195595
0.20384
0.208482
0.210601
0.215429
0.216835
0.209222
0.213583
0.216248
0.020708
0.0186997
0.0217391
0.0120025
0.0144291
0.0145973
0.0120548
-0.187808
-0.202758
-0.181126
-0.290313
-0.414565
-0.369016
0.175656
0.142754
0.211633
0.377321
0.245859
0.165925
0.237278
0.331658
-0.0541599
0.16465
-0.0228686
0.580358
0.44933
0.598003
0.228775
-0.073501
0.069456
0.13842
-0.0774728
-0.00279446
0.018858
-0.0759041
-0.0464751
-0.0254822
0.0723147
-0.0221963
-0.0421427
-0.297367
-0.112267
0.0249411
0.00870428
0.129302
0.195339
-0.0604198
-0.121091
-0.156382
0.324997
0.346534
0.366496
0.331867
0.359995
0.284057
0.276402
0.294248
0.304437
0.298139
-1.10091
-0.825497
-1.72541
-1.02015
-0.594728
0.189161
0.148885
0.434726
0.333186
0.412794
0.396184
0.369613
0.331167
0.335093
0.372524
0.0869302
0.188067
0.166466
0.167833
0.0686809
0.0179659
0.298908
0.291469
0.329158
0.35236
0.322208
0.35619
0.21428
0.213741
0.215624
0.211789
0.211685
0.212201
-0.362577
-0.311786
-0.434379
-0.44552
-0.518873
-0.472935
0.0279346
0.0154417
0.0137115
0.0146396
0.0272692
0.0294285
-0.157923
-0.212354
-0.271964
-0.253769
-0.302887
-0.371396
-0.390323
-0.293994
-0.209346
-0.205018
0.116855
0.360634
0.179042
0.363188
0.25593
0.28135
0.217935
0.205809
0.245761
0.0988528
0.162942
-0.0706522
-0.588088
-0.473604
0.413029
0.482578
0.255908
0.107965
-0.174092
-0.0256967
0.250357
0.18388
0.228604
0.296302
0.289725
-0.316095
-0.270464
0.0126473
0.21402
-0.0715318
-0.136059
-0.123274
0.0304212
-0.0140893
)
;

boundaryField
{
    wall-4
    {
        type            zeroGradient;
    }
    velocity-inlet-5
    {
        type            zeroGradient;
    }
    velocity-inlet-6
    {
        type            zeroGradient;
    }
    pressure-outlet-7
    {
        type            fixedValue;
        value           uniform 0;
    }
    wall-8
    {
        type            zeroGradient;
    }
    frontAndBackPlanes
    {
        type            empty;
    }
}


// ************************************************************************* //
