/*--------------------------------*- C++ -*----------------------------------*\
| =========                 |                                                 |
| \\      /  F ield         | OpenFOAM: The Open Source CFD Toolbox           |
|  \\    /   O peration     | Version:  4.0                                   |
|   \\  /    A nd           | Web:      www.OpenFOAM.org                      |
|    \\/     M anipulation  |                                                 |
\*---------------------------------------------------------------------------*/
FoamFile
{
    version     2.0;
    format      ascii;
    class       surfaceScalarField;
    location    "18";
    object      phi;
}
// * * * * * * * * * * * * * * * * * * * * * * * * * * * * * * * * * * * * * //

dimensions      [0 3 -1 0 0 0 0];

internalField   nonuniform List<scalar> 
1300
(
3.75095
5.62643
-6.07561
3.75095
-5.91389
5.62643
-4.59461
4.59461
-1.32586
1.32586
1.87675
1.8742
-2.8174
2.8174
-4.3363
4.3363
-2.70569
2.70569
-5.24641
5.24641
-5.06837
5.06837
4.67746
-4.67746
-4.81424
4.81424
-1.79736
1.79736
-3.84682
3.84682
3.16916
-3.16916
-4.73026
4.73026
-0.468847
0.468847
-0.552718
4.30367
3.19824
3.19824
-2.42115
2.42115
-4.85328
4.85328
6.21774
-6.21774
9.20008
-9.20008
-3.12447
-3.42183
1.32415
-8.18843
-4.58975
-4.58975
-8.44022
8.44022
-2.81379
2.81264
2.92911
-2.92911
-1.82157
1.82157
-4.5217
-0.0729123
-4.5217
4.58847
0.00614338
4.58847
-1.42695
0.101092
-1.42695
4.07709
-4.07709
1.16937
0.156487
1.16937
3.06418
-3.06418
-1.87709
3.75384
1.87387
-1.87153
6.1752
-1.87942
3.75363
-5.45411
5.45411
-2.98113
0.163733
-2.98113
2.92527
-0.107873
2.92527
-5.29414
5.29414
-4.11863
-0.217668
-4.11863
4.48227
-0.145966
4.48227
2.92695
-2.92695
-2.73593
0.0302433
-2.73593
2.65437
0.0513186
2.65437
0.353709
5.27272
-5.98014
8.79278
-5.27272
0.0263096
5.20834
0.0380683
5.20834
-5.10607
0.0376965
-5.10607
5.0104
0.0579698
5.0104
4.75834
-0.0808782
4.75834
-4.79835
0.12089
-4.79835
-3.33112
-3.4447
-4.90308
0.0888407
-4.90308
-1.79033
-0.00703328
-1.79033
1.73344
0.0639188
1.73344
-3.47312
3.47312
-4.30233
0.455507
-4.30233
3.12354
0.0456218
3.12354
1.86913
1.88182
5.62009
-5.62009
2.45092
-4.66735
-0.0629017
-4.66735
-4.82772
-4.37237
4.82772
-0.0974594
-0.780966
0.312119
-0.780966
3.16046
0.0377721
3.16046
2.57803
0.076338
-2.57803
0.156878
3.36947
-3.36947
1.78652
0.634631
1.78652
-5.57147
5.57147
4.94925
0.0611494
-4.94925
0.0959751
6.15725
0.060496
6.15725
-6.1999
-0.0178459
-6.1999
3.34741
-6.76924
-3.43752
4.70833
0.105905
-4.70833
0.118583
2.88645
0.0426661
2.88645
-2.90416
2.90416
-2.9818
0.0526842
-2.9818
-2.22313
0.401555
-2.22313
1.51689
0.304685
1.51689
-4.39449
-0.127208
-4.39449
-4.47593
0.173596
4.47593
0.11254
0.945713
-0.945713
-1.5556
0.128656
-1.5556
-4.23106
-0.163433
4.23106
-0.153969
-3.92662
-0.150465
-3.92662
-3.02291
0.0411092
3.02291
0.0412775
3.1129
0.0475592
-3.1129
0.0487205
-1.87101
3.75283
-1.87995
3.75381
-5.27081
-0.1833
-5.27081
5.44702
0.00708712
5.44702
3.43324
0.413581
-3.43324
0.45211
3.33025
-0.404979
3.33025
-5.25944
-0.0346975
-5.25944
5.24372
0.0504223
5.24372
3.7692
-0.438946
-3.7692
-0.349434
4.56718
-0.0849138
4.56718
2.98405
-0.0570981
2.98405
-2.88275
-0.044207
-2.88275
2.77571
-2.77571
2.74537
0.0303377
-2.74537
0.00944404
-11.1324
11.1146
-0.0349303
-11.0975
5.17341
5.17341
4.16864
0.589704
4.16864
-5.01028
0.211929
-5.01028
3.31482
-6.75234
3.43618
-6.7673
3.43837
-11.6268
3.36314
-6.80784
5.07097
-5.07097
4.97873
0.0922416
-4.97873
0.0756573
-1.79753
0.00720685
-1.79753
-2.80331
-0.669814
-2.80331
4.12932
-0.656206
4.12932
-3.02942
3.02942
-3.07828
0.0488596
3.07828
0.0452629
4.61895
-0.0517743
-4.61895
-0.0484012
0.988092
0.181276
-0.988092
0.207126
3.55972
-0.190252
3.55972
-3.17819
-0.191277
-3.17819
-1.79537
-0.0021607
1.79537
-0.00885194
-5.81799
0.246523
-5.81799
-11.1909
0.0934131
-11.1528
-6.10648
-6.10648
2.33374
11.1265
-2.86101
-0.021731
2.86101
0.0254314
2.972
0.0574206
-2.972
0.0678374
-2.83586
0.0601514
2.83586
0.0682992
-2.62243
0.399304
-2.62243
-1.10853
1.10853
-1.29481
0.186288
1.29481
0.222072
1.1697
-0.223991
1.1697
1.6579
0.0755378
-1.6579
0.102299
-3.81459
-0.112034
-3.81459
5.27929
0.167732
5.27929
-3.05823
-0.119957
3.05823
-0.0741819
-0.0333407
11.1479
-5.14007
0.0340049
5.14007
-11.2084
11.2424
-3.26338
0.640948
3.26338
0.90526
5.29649
0.274979
-5.29649
0.286203
5.17414
0.069574
-5.17414
0.103167
-2.30564
-0.497666
-2.30564
-4.82893
-0.441873
4.82893
-0.699608
-11.4733
-0.20403
11.6773
-11.4153
6.02202
0.135228
-6.02202
11.3776
-0.946119
0.000406652
0.946119
0.162407
1.46413
-0.294427
1.46413
3.7214
-0.161686
-3.7214
-0.0931838
-5.23656
-0.0228811
5.23656
0.0427272
-1.86993
-0.435706
1.86993
-0.405802
-4.2663
4.30407
1.9089
-3.29852
-3.47072
-7.67089
1.85168
1.90114
4.30261
-7.18903
-4.43777
-7.07045
7.27245
-6.98624
-9.31343
9.23256
7.42866
-7.57913
-5.78605
5.83131
6.48192
-6.44064
1.87793
1.87591
6.22247
-6.05874
-16.1819
15.9986
9.01923
-9.2369
12.4625
-12.4972
-13.2846
13.3542
-5.76202
5.79226
-6.64366
6.59945
-6.80794
6.73375
-3.26482
-3.50248
9.30384
-9.215
11.6796
-11.7425
-8.22912
8.68463
3.38141
0.922662
3.42897
-1.88222
3.76014
-1.87141
3.78031
3.45177
-6.71659
3.30057
-6.77129
6.07124
5.60834
-5.97379
-1.6971
-5.87137
5.91404
-5.82835
5.89665
8.98889
-9.0618
-1.88589
3.7618
-1.86792
3.76906
-3.42554
-2.3605
3.37992
0.922684
5.69209
3.61175
-5.79799
-1.27246
-7.71152
7.54983
-7.98081
7.78953
-0.451201
5.82091
-5.36971
4.40208
-1.54391
7.36483
5.72853
5.94046
5.86777
-5.59279
1.11848
-6.48819
-6.39222
-2.60839
2.73705
2.63824
-2.48175
5.87073
1.55793
5.71676
-5.49575
-2.08338
-5.60778
3.81957
2.01174
3.86843
4.07459
2.40733
4.1157
3.03028
-3.03683
0.00655063
-3.05622
6.08649
0.724973
-5.41672
-4.49404
3.82641
2.39606
3.71853
-4.68157
-1.37716
-4.22946
-9.7754
-6.40646
-10.2173
10.1213
5.87723
10.1284
-10.8164
10.8591
6.32222
2.69701
6.17625
-5.39283
-3.84407
-5.74226
10.8924
-1.31975
-9.57269
-7.79019
-5.49445
7.73976
4.72277
7.94647
5.40774
8.04964
3.31903
7.57342
-8.04179
2.54734
-3.84536
-1.91667
-3.83591
3.74551
2.04675
3.79683
-4.13384
-2.50981
-4.15557
-4.19115
-2.61679
4.24825
2.3512
-4.29438
-3.68643
4.41434
2.31942
3.15167
-7.58944
3.65617
-7.15865
-6.51335
-2.70165
-6.43769
4.22876
2.60204
-6.8308
-2.48783
10.9562
-5.34788
9.25912
-7.19065
-4.55184
-7.23905
-6.7303
-1.49882
-6.55671
-8.69569
8.19802
-9.07224
8.41604
12.7848
-5.87728
-6.90755
-3.96891
-2.47173
3.92019
-0.491225
-3.71089
3.71745
0.0492491
3.82956
4.75223
4.261
-3.90202
-1.92633
-3.83418
3.83737
2.05928
3.89752
6.77972
2.20917
6.78586
-6.4204
-2.6414
-6.54761
9.03791
-8.63635
2.96039
-2.96255
5.22809
2.56145
-5.03784
-2.67368
5.99939
-3.02657
-2.97282
-12.2179
10.6107
1.60719
-4.85304
-0.450963
0.0178842
-5.51359
-3.79984
5.3927
0.547759
11.1584
7.35859
-5.51376
5.76028
6.16357
6.22472
-0.167497
5.79207
-5.15112
5.21691
-2.22278
-2.99413
5.2626
-5.42603
-1.28501
-5.17184
3.88683
0.290732
1.86734
-1.55522
-2.07561
-0.532785
-1.97331
1.60609
1.03215
1.78737
0.961342
1.77571
-2.99546
0.604953
2.3905
-2.03411
-1.8768
-3.54599
-0.967577
4.51357
5.5216
2.02824
-5.42841
-0.179372
2.73796
-2.67404
-0.722515
-2.82347
2.121
-2.84351
-3.52345
-1.83866
5.36211
-3.37483
-0.459353
3.31741
0.551015
-3.81862
-2.05275
3.76594
0.34976
-3.13938
6.23146
-3.09208
-5.06571
2.52953
3.55696
4.54128
-4.78974
2.443
2.34674
-1.23278
3.90122
-0.18269
3.49624
-5.79498
4.41782
5.27836
3.40627
-5.69194
1.46248
-4.33251
9.32503
-8.51736
-0.807672
4.56598
4.75905
7.41348
5.37136
-5.71368
13.1272
-2.57129
-5.94607
6.9038
-3.49753
5.44049
-8.93802
-10.8118
4.86578
-11.284
10.9326
0.351459
-2.53834
-8.27805
13.8224
-2.0181
-11.8043
8.11032
-6.29686
-4.21185
10.5087
-7.61661
8.05592
-3.77774
-4.27818
-8.38318
-4.11405
8.40606
2.45305
-9.59244
12.1398
-2.01902
5.65088
0.525374
5.56597
5.34199
-5.64311
0.301122
2.27462
-6.05236
4.74963
-10.3927
-5.06905
9.80675
-4.7377
-7.7707
-7.08454
-0.686155
1.84686
10.2929
-7.25461
5.38035
1.87425
3.33227
0.565258
-3.3626
-0.473308
0.349218
4.47237
-4.82159
4.14605
4.22239
3.39518
1.07719
3.79199
2.12204
-3.81743
-0.338149
-4.08272
1.46593
-1.73151
-3.59812
5.06405
-4.0261
0.427979
-2.68402
-3.54164
6.22566
-4.60069
3.07026
3.1612
5.12953
-4.92737
1.38572
-2.43248
-2.49488
2.64037
-4.37189
1.93255
3.13149
4.25197
0.565541
5.01467
4.79207
-7.61672
0.458072
8.40382
-7.13137
1.91699
6.13265
-7.29734
0.212803
-6.22489
1.06371
-6.41159
-5.76709
5.32028
-6.8191
-3.61774
6.10004
0.685819
-6.21258
-0.344129
-5.89109
-2.8046
-6.32679
-3.13202
-5.94022
-8.84569
-1.58799
-7.25771
6.61004
-6.64654
-3.57073
7.34614
1.06989
-7.30828
7.30869
-7.36659
7.07217
0.094261
3.62318
4.35526
1.88353
-2.3904
4.27394
-4.98209
7.19127
-8.39755
3.41546
3.88818
-6.52958
-4.50937
4.99996
4.03795
5.30464
9.01578
-10.5436
1.52786
-10.949
12.2245
-1.27552
-16.7073
5.75834
-7.69152
2.69465
0.265739
2.70186
0.663798
2.41111
-3.07491
-2.29875
-2.3076
-2.23915
-3.28671
5.52585
1.07474
-3.32063
2.24589
-3.42624
4.50098
-0.0748362
-3.24579
5.20682
-2.79571
5.47256
-3.50108
1.97149
3.20367
5.48494
-2.28126
4.21307
-1.65163
1.74732
-4.02858
-1.53939
-2.99871
5.04547
-3.22695
3.65493
-0.223875
3.8788
-4.0061
0.979532
-0.610914
3.61147
3.76835
4.13345
-3.05626
2.86795
-4.51958
-1.16063
-3.95404
-0.822544
-0.369667
-3.67306
4.04273
6.05529
-6.42495
-5.28207
9.5748
-4.29273
7.72705
-5.42436
-2.30269
-4.24986
-4.38649
3.85056
1.94151
9.66856
0.214852
-5.63921
-4.93627
-4.03101
3.18762
2.02929
-2.06818
3.67538
2.0503
-0.182957
0.610164
1.1772
1.93791
-1.32774
0.170894
1.76701
-1.38433
1.99149
0.746461
-2.06703
0.0937229
-1.31658
3.43758
1.07392
-2.10607
0.77833
1.12898
-3.35176
4.68518
-2.34602
-2.33915
5.81416
1.15546
-3.50148
4.01638
-3.72565
2.27768
-3.24526
-1.2238
-4.94945
-3.39152
-2.46008
4.70596
-3.06578
5.09402
1.18252
-4.91464
6.09716
-3.50833
1.66967
-2.98492
3.73138
-0.992646
-1.99227
2.73177
2.63034
-2.81613
-0.00734378
-0.08436
2.31864
-2.403
-0.524877
-2.55899
-4.56263
4.91239
-2.11863
4.56163
2.1553
-1.91397
6.47561
1.81237
-3.72635
-3.25333
-3.71269
-1.37961
3.16167
-1.77405
-3.96821
-6.05223
4.40715
-0.91091
-6.28933
8.44856
-2.15922
-3.89327
-0.524547
5.09053
-8.02206
1.9697
-3.27243
5.17613
4.99344
4.08253
-12.7038
0.899487
-6.82652
1.45144
-8.27796
6.21049
-3.37171
8.2375
-10.8253
7.2546
-9.75545
7.42982
-0.84814
5.75884
-5.45772
3.81386
-7.9279
-5.47485
6.72697
-4.02997
7.25235
-4.45972
11.7121
-6.47874
7.04186
4.67021
-1.48895
-5.75009
-6.80595
5.317
0.235902
5.80187
4.9597
-2.83765
4.62155
2.26015
-4.69263
-2.11174
-6.56672
1.87409
-3.40552
-1.91819
3.79228
3.21134
3.7766
1.2974
-3.30329
6.9491
-7.63525
-2.2114
-3.5557
6.7858
-1.4688
4.17763
-7.73333
-2.23395
5.04513
-1.07063
-3.9745
0.832159
-4.4499
1.67245
-6.12235
5.14665
-5.49078
2.14211
-9.83363
-5.16617
-5.00376
-2.21046
-5.15613
-7.68691
5.47645
-1.92857
5.38012
-8.7422
7.67157
-3.48227
8.95872
-5.30982
-1.01697
5.71562
1.35654
10.3153
0.0744211
-4.58379
-1.77523
3.88351
-2.10828
1.41239
-3.59864
0.284871
2.47652
3.33764
-6.36334
-0.166238
-4.75003
-3.89537
7.93332
5.67943
11.7347
1.19108
9.13986
-1.20654
10.3309
4.0981
4.32017
-3.01574
4.5436
1.02699
4.44245
-0.823276
2.79476
1.87858
1.87155
0.80249
2.29716
1.47119
3.27669
0.201782
-2.10582
4.65788
-8.68889
-0.981331
-8.09918
1.13337
5.85414
-4.72076
3.11579
-1.0865
1.00751
0.223332
-1.85182
1.62849
-2.7708
-2.03477
-0.267763
-1.57019
2.34852
1.86739
-2.08076
-0.690038
0.317605
-3.70912
2.92765
-2.935
-0.304657
5.7925
-2.71726
0.314263
-1.04759
-2.24473
-2.77751
2.68379
6.20733
0.268276
3.11526
5.18067
3.12792
0.290265
7.23272
-6.88126
-3.16002
-5.98177
0.228718
5.31925
2.37072
7.9222
7.04093
5.57214
-2.16119
-9.79645
6.5399
-1.9963
5.26438
-1.28989
-4.83246
4.87771
2.31355
-5.56353
0.0727578
-4.7597
-6.756
-0.659797
8.33137
-9.65547
8.6385
5.83389
1.42382
-4.33489
-0.668878
4.1486
0.171576
10.5025
-1.19659
-6.85518
8.05177
-4.65755
3.67622
0.856099
2.81928
2.48458
1.39808
-5.4571
-10.1779
-1.77418
-1.57758
-4.11333
0.400232
-2.26762
6.29805
-2.62183
3.99536
5.42994
6.43745
-2.22527
-4.19968
6.518
-2.52264
3.91481
)
;

boundaryField
{
    wall-4
    {
        type            calculated;
        value           uniform 0;
    }
    velocity-inlet-5
    {
        type            calculated;
        value           uniform -3.75095;
    }
    velocity-inlet-6
    {
        type            calculated;
        value           uniform -5.62643;
    }
    pressure-outlet-7
    {
        type            calculated;
        value           nonuniform List<scalar> 8(6.07561 5.91389 6.54631 6.86429 6.77582 6.78493 6.75099 6.80151);
    }
    wall-8
    {
        type            calculated;
        value           uniform 0;
    }
    frontAndBackPlanes
    {
        type            empty;
        value           nonuniform 0();
    }
}


// ************************************************************************* //
