/*--------------------------------*- C++ -*----------------------------------*\
| =========                 |                                                 |
| \\      /  F ield         | OpenFOAM: The Open Source CFD Toolbox           |
|  \\    /   O peration     | Version:  4.0                                   |
|   \\  /    A nd           | Web:      www.OpenFOAM.org                      |
|    \\/     M anipulation  |                                                 |
\*---------------------------------------------------------------------------*/
FoamFile
{
    version     2.0;
    format      ascii;
    class       volVectorField;
    location    "18";
    object      U;
}
// * * * * * * * * * * * * * * * * * * * * * * * * * * * * * * * * * * * * * //

dimensions      [0 1 -1 0 0 0 0];

internalField   nonuniform List<vector> 
918
(
(0.985067 -0.000724133 0)
(0.0047687 2.96626 0)
(-0.00908647 1.6095 0)
(0.979824 0.00241103 0)
(-0.00394893 1.57438 2.46696e-21)
(-0.00704423 2.9489 -8.37193e-19)
(0.85372 1.2212 2.92162e-19)
(0.449799 0.213272 -3.88573e-21)
(0.999908 -0.000341026 0)
(0.0141251 0.830683 0)
(-0.0153261 1.25813 0)
(0.787966 -0.00886564 0)
(0.0115237 2.93014 0)
(0.00186602 2.7951 0)
(-0.0193826 3.16481 4.65882e-19)
(-0.00551812 1.48205 -4.07649e-21)
(0.568232 0.102626 2.44403e-19)
(0.17706 1.18966 2.52895e-19)
(0.962211 0.00394783 0)
(-0.000854599 1.37395 0)
(0.15073 0.25539 -2.07306e-19)
(1.00192 -0.0053308 0)
(1.00087 -0.0099425 0)
(0.976162 -0.00633529 0)
(0.699851 -0.0291606 0)
(0.019472 2.62913 0)
(-0.0151405 2.91036 2.77517e-19)
(-0.020925 1.62952 0)
(-0.0225746 1.7487 0)
(-0.020513 1.62556 0)
(-0.00375351 1.82931 0)
(-0.000998011 1.60043 -1.91362e-21)
(-0.00537463 1.48841 0)
(-0.0204466 2.9875 -2.93769e-23)
(-0.0169912 3.0054 6.65046e-19)
(0.00201388 3.00016 0)
(0.865479 -0.0104739 0)
(0.420142 0.956329 -6.7914e-22)
(0.833626 1.23468 -3.94881e-19)
(0.981139 1.07368 3.77131e-19)
(0.700525 1.33291 -6.75796e-20)
(0.693706 1.31845 3.82401e-19)
(0.475011 0.28418 3.78893e-21)
(0.464895 0.19487 0)
(1.17388 0.592589 0)
(0.450738 0.3067 1.78611e-20)
(0.405578 0.208053 -1.85455e-20)
(0.919334 -0.00749596 0)
(1.00038 7.41883e-05 0)
(0.999921 0.000316128 0)
(1.00327 -0.0078076 0)
(1.00095 -0.00106548 0)
(1.00022 4.97898e-06 0)
(0.0287515 1.68247 -1.24361e-19)
(0.033667 0.920851 0)
(0.0566894 0.86521 0)
(-0.0213436 0.914198 0)
(-0.0235694 0.85778 0)
(0.0133198 1.5653 0)
(-0.0234955 1.3761 0)
(-0.0351391 1.20049 0)
(-0.0128258 1.44148 0)
(-0.00818246 1.29338 0)
(0.864932 0.000134591 0)
(0.877928 0.00864489 0)
(0.79922 -0.00370805 0)
(0.87191 0.0139011 0)
(0.773045 -0.00868755 0)
(0.0153482 3.00065 3.00657e-19)
(0.0116977 3.00833 0)
(0.0064949 3.0026 0)
(0.014163 2.9972 3.32312e-24)
(0.00837872 2.9585 -4.54335e-19)
(0.0152175 2.98191 0)
(0.0112251 2.90367 0)
(0.025508 2.93007 5.9149e-25)
(0.0046504 2.82545 0)
(0.0326129 2.9154 0)
(-0.00636113 2.74424 0)
(0.307104 3.56142 0)
(-0.146005 3.63939 0)
(0.137501 3.25712 -4.30038e-19)
(-0.00921288 2.99321 0)
(-0.0149047 1.807 0)
(-0.00166048 1.62718 4.02019e-21)
(-0.00352986 1.49037 -6.99165e-21)
(0.621564 0.159902 -8.42328e-20)
(0.565625 0.0641681 -8.28754e-20)
(0.597719 0.196807 -2.53822e-19)
(0.540938 0.128592 -1.69119e-19)
(0.204798 0.892262 0)
(0.264241 1.34515 -2.55892e-19)
(0.368672 1.31355 4.23377e-19)
(0.987309 0.00816189 0)
(0.941855 0.00550842 0)
(1.00031 0.000406831 0)
(1.00327 0.00947377 0)
(1.00285 0.00792012 -4.97695e-19)
(0.991832 0.00987006 3.79918e-19)
(-0.0145752 1.51975 0)
(-0.00108288 1.36067 0)
(-0.0318967 1.635 0)
(-0.0230392 1.55612 0)
(-0.00245971 1.41082 0)
(0.228058 0.275166 6.40731e-20)
(0.273936 0.256043 0)
(0.993446 -0.00812623 0)
(0.95463 -0.006123 0)
(0.843631 0.0212431 0)
(0.812581 0.0328144 0)
(0.752675 -0.0214578 0)
(1.00548 -0.00127392 0)
(0.755711 0.0522497 0)
(0.617241 -0.00806661 3.31426e-19)
(-0.0349041 2.86655 1.46859e-19)
(0.0437659 2.90767 0)
(0.0580783 2.88236 0)
(-0.0057825 2.69568 0)
(-0.0133916 2.98514 2.5494e-19)
(-0.0184239 2.89554 0)
(-0.0158884 2.98803 -8.08149e-19)
(-0.0132338 2.92541 2.80047e-19)
(-0.019546 1.81281 0)
(-0.0150767 1.80906 0)
(-0.00167978 1.62602 -7.93946e-23)
(-0.00189322 1.59735 0)
(-0.0068538 1.4853 0)
(0.931325 -0.00702991 0)
(0.848065 -0.0093921 0)
(0.855884 0.00988112 0)
(0.947031 -0.00798286 0)
(0.883562 -0.00757735 0)
(0.530457 1.15285 -3.30754e-21)
(0.58327 1.19682 0)
(0.382664 0.901029 3.64708e-21)
(0.323118 0.761124 0)
(0.945806 1.10582 -1.07568e-19)
(1.05925 0.909536 2.21921e-19)
(0.387713 1.40824 0)
(0.552646 1.3922 0)
(0.546517 1.34119 0)
(0.10305 0.15087 -5.76227e-20)
(0.510913 0.270195 0)
(0.496812 0.171845 4.83816e-20)
(1.03336 0.960214 0)
(1.10351 0.807911 0)
(1.12676 0.752144 -1.92793e-19)
(1.15124 0.645446 0)
(1.19843 0.424146 2.55717e-20)
(0.956994 -0.00865363 0)
(0.96187 -0.0102122 0)
(0.901786 -0.00782682 0)
(0.984408 -0.00913993 0)
(0.974781 -0.00957491 0)
(0.937246 -0.00589851 0)
(1.00015 0.00209948 0)
(1.00088 0.00141275 0)
(0.999868 0.000882421 0)
(-0.030622 1.92585 7.55513e-20)
(0.0697108 1.63045 0)
(0.0101761 1.90677 8.63049e-20)
(-0.0128633 1.6575 -5.87361e-20)
(0.113112 1.19128 -2.09515e-19)
(0.0764435 1.02219 0)
(0.113649 1.01864 0)
(-0.0605682 1.00329 0)
(-0.0544552 0.972396 0)
(0.0411525 1.72726 -2.95371e-22)
(0.0110106 1.56339 0)
(0.0115772 1.72055 -8.52704e-21)
(-0.00670063 1.56112 1.98158e-20)
(-0.0618978 1.14729 0)
(-0.0489397 1.28375 0)
(-0.0516208 1.10327 0)
(-0.00908005 1.48444 0)
(-0.0042405 1.31527 0)
(0.947503 0.014926 0)
(0.886304 0.000758851 0)
(0.927658 0.00952146 0)
(0.850839 1.0685e-05 0)
(0.804529 0.00205745 0)
(0.898968 0.0077937 0)
(0.888984 0.00427804 0)
(0.796134 -0.00230354 0)
(0.00418401 3.06418 -2.51035e-21)
(0.016611 3.05788 0)
(0.0153221 2.96907 0)
(0.00877057 2.87632 0)
(0.965654 4.00095 0)
(1.31072 3.25997 4.87689e-19)
(0.0703293 3.08433 0)
(-0.0245761 2.91265 0)
(-0.0187272 1.79869 0)
(-0.0191163 1.80253 0)
(-0.0169749 1.79965 0)
(-0.0087074 1.81725 1.81164e-21)
(-0.0134841 1.81523 0)
(-0.0115679 1.81346 0)
(-0.00492931 1.50203 -2.51241e-22)
(-0.000199915 1.66088 7.28746e-21)
(0.00101426 1.64197 7.14248e-21)
(-0.00269486 1.48738 0)
(0.645873 0.123544 1.24128e-19)
(0.580046 0.0351859 -1.20843e-19)
(0.240814 1.49656 0)
(0.252896 0.650554 -9.03529e-20)
(0.183218 1.62962 -2.972e-19)
(0.160076 1.15679 2.97355e-19)
(0.902283 0.00707619 0)
(0.967636 0.0106794 0)
(0.974652 0.0105139 0)
(0.923971 0.00620695 0)
(-0.00978778 1.50565 0)
(-0.0112583 1.51258 0)
(-0.00280783 1.33449 0)
(0.409913 0.31697 1.64057e-19)
(0.348078 0.296547 -2.00425e-19)
(0.349153 0.23264 0)
(1.12675 0.0830148 -1.46097e-22)
(1.10831 0.0360576 0)
(1.03888 0.0365288 0)
(0.94673 0.00498879 0)
(0.666874 0.0943883 0)
(0.697481 0.0668639 -5.33672e-19)
(0.595887 0.0173735 2.03557e-19)
(0.00974872 2.98221 1.81486e-19)
(-0.0325658 2.86831 1.94161e-20)
(0.00215128 3.04957 -5.41449e-21)
(0.0206406 3.04334 2.01662e-19)
(-0.0153686 2.99627 9.3008e-21)
(-0.0128354 2.94946 -3.77151e-23)
(-0.0175731 3.01152 -1.74952e-19)
(0.0141893 3.0231 1.25851e-19)
(0.00665327 3.03666 -2.01289e-19)
(0.923238 0.00678767 0)
(0.927464 0.000136112 0)
(0.838658 -0.00469161 0)
(0.956978 0.0121592 0)
(0.942434 0.0137837 0)
(0.879664 0.00762627 0)
(0.911943 0.0119243 0)
(0.922715 0.0154334 0)
(0.828276 0.00697381 0)
(0.750963 1.42755 1.37118e-19)
(0.796717 1.52256 0)
(0.254216 0.421198 1.46764e-20)
(0.193024 0.612837 1.1592e-19)
(0.293123 0.725916 -6.54047e-20)
(0.250205 0.610138 1.20401e-19)
(0.277939 0.684183 3.18889e-19)
(0.106771 0.179278 8.66609e-20)
(0.569767 0.224075 1.81574e-19)
(0.539256 0.248554 4.51387e-20)
(0.520393 0.155207 9.1666e-20)
(1.18853 0.478676 1.08164e-19)
(1.20089 0.27335 1.14152e-19)
(-0.0110581 1.8248 2.31286e-20)
(-0.0151966 1.58539 0)
(0.990952 0.0269278 0)
(0.960037 0.0166531 0)
(0.909822 -0.00218543 0)
(0.0109449 3.07473 0)
(0.0207521 2.94392 3.45406e-19)
(0.0172665 2.9564 0)
(0.00636683 2.85081 -3.44284e-19)
(0.00534655 3.09109 7.98027e-20)
(0.00612571 3.08183 0)
(0.883589 1.83011 -1.00105e-19)
(1.27411 2.38973 2.20408e-19)
(0.864407 1.93715 -5.78998e-19)
(0.0212035 2.98531 -1.3643e-19)
(0.0374407 3.00883 0)
(-0.0315157 2.88357 0)
(0.00116124 1.68551 -1.15638e-21)
(-0.00225234 1.68167 -1.47967e-20)
(-0.00288914 1.5324 -2.46441e-21)
(0.258066 1.30678 2.83041e-19)
(0.204674 0.433252 -1.93294e-19)
(0.0145461 1.91129 2.01961e-19)
(0.130995 1.80978 -2.63894e-19)
(0.116427 1.41895 4.6463e-20)
(0.000956515 3.1189 -4.69811e-19)
(0.0147979 3.11806 5.29069e-19)
(-0.00910861 2.98127 2.21394e-19)
(-0.00373309 2.97844 -1.96893e-19)
(-0.0213329 2.88271 -2.25605e-19)
(0.00791222 3.09964 -5.87042e-19)
(0.00165714 3.10506 5.88785e-19)
(0.217748 0.605042 0)
(0.151281 0.600889 -2.24997e-19)
(0.15885 0.246237 9.89304e-20)
(0.318246 0.804114 2.65584e-19)
(0.157026 0.21848 -4.07211e-19)
(1.20347 0.174716 -1.66308e-20)
(1.20177 0.320532 0)
(1.18905 0.12649 4.4037e-20)
(0.0453004 1.73707 -4.41187e-23)
(0.042275 1.75715 0)
(0.0217738 1.56 0)
(0.323592 1.1832 -1.03053e-19)
(0.348487 1.00003 -2.16862e-19)
(0.172374 0.307288 3.73262e-19)
(1.00542 -0.0113981 0)
(1.00748 -0.00764994 9.16749e-20)
(-0.0204638 1.80102 0)
(-0.0313288 1.80816 0)
(1.002 0.00333743 7.31388e-22)
(1.00362 0.00994853 1.8654e-19)
(-0.00855157 1.82159 -2.43437e-21)
(-0.00670741 1.82062 0)
(0.0393246 3.18503 5.98407e-20)
(0.392875 3.49611 0)
(1.11915 0.635372 1.9723e-20)
(1.01278 0.0134233 -8.45037e-22)
(1.02116 -0.0109178 0)
(1.00168 3.54382e-05 -3.20157e-23)
(0.0622228 1.08263 0)
(0.112625 2.68092 0)
(-0.123449 1.60156 0)
(-0.0793091 2.05888 3.08924e-20)
(-0.0590561 1.92066 2.05534e-20)
(1.00438 0.00836164 8.93694e-22)
(1.04573 0.0170423 0)
(1.0703 0.0276783 0)
(-0.0209183 1.80524 0)
(-0.00803039 1.83737 0)
(-0.0230879 1.78744 0)
(0.332733 1.41802 -1.74379e-19)
(1.01113 -0.00994503 0)
(1.00935 -0.0157782 0)
(1.00226 0.0003574 1.15603e-19)
(1.0054 -0.00471803 -1.38278e-19)
(1.00123 -0.00112874 0)
(-0.0233975 1.8012 0)
(-0.0222751 1.79817 0)
(-0.0216664 1.80075 0)
(-0.0252496 1.7876 0)
(-0.02679 1.78737 0)
(-0.0283661 1.78944 0)
(1.02994 -0.0176123 0)
(1.02331 0.0213287 -3.54145e-22)
(0.798446 1.25896 1.96887e-19)
(1.00279 7.86762e-05 -1.16154e-19)
(1.00346 0.00559364 1.391e-19)
(1.00119 0.00216914 0)
(1.01347 0.0103157 1.12969e-19)
(1.00882 0.00880659 -1.39736e-19)
(1.009 0.0154707 0)
(-0.00834111 1.83729 0)
(-0.00888439 1.83006 3.8508e-21)
(-0.0063054 1.82866 -2.71128e-21)
(1.1878 0.24317 7.27326e-22)
(1.12564 0.0865517 0)
(0.0556418 3.07635 -2.36854e-19)
(0.0692197 2.84821 -1.85482e-20)
(0.150634 3.19788 3.7294e-19)
(0.14465 3.22758 -6.91388e-21)
(0.137382 3.24442 0)
(0.0217682 3.13867 5.35812e-20)
(0.0819284 3.1625 2.28535e-19)
(0.073393 3.18967 -1.04373e-19)
(0.0266328 3.1283 0)
(0.684332 0.322156 0)
(0.6204 0.375112 0)
(1.07678 0.660042 -8.12697e-20)
(1.10413 0.797557 1.3077e-19)
(1.14471 0.54591 0)
(1.18907 0.496946 0)
(1.01624 0.0138296 -2.11775e-19)
(1.01416 0.0148614 2.64459e-19)
(1.02486 -0.00975315 0)
(1.02211 -0.0128261 0)
(1.0065 0.00293048 0)
(1.01026 0.00355763 0)
(1.005 0.00186102 0)
(1.00963 0.00545795 0)
(1.00821 0.0064981 0)
(1.00475 0.00463445 0)
(0.0443624 1.07397 0)
(-0.0352323 0.966897 0)
(0.177547 1.12141 0)
(0.165343 1.1652 0)
(0.103894 2.68528 0)
(0.165629 2.69007 -9.45987e-20)
(-0.0179063 2.75212 0)
(-0.0952301 2.67432 6.24302e-21)
(-0.139635 2.40919 -1.43672e-21)
(-0.0996771 1.61879 0)
(-0.072183 1.64878 0)
(-0.15951 1.54935 0)
(-0.141693 1.45215 0)
(-0.272944 1.96696 -2.36833e-21)
(-0.0756598 1.95772 1.73246e-20)
(-0.0758578 2.05201 1.85024e-20)
(-0.0530827 2.007 0)
(-0.0567101 1.91979 -4.28583e-20)
(-0.043707 1.90025 -1.54179e-20)
(-0.238429 1.93042 1.07011e-21)
(-0.126419 1.91954 -2.22144e-20)
(-0.128231 1.99683 -2.33627e-20)
(1.01371 0.0183205 2.09142e-19)
(1.01192 0.000439673 -2.58289e-19)
(1.00668 0.0193896 -2.15372e-19)
(0.992773 0.0142022 2.74335e-19)
(1.04617 0.0188793 0)
(1.03467 0.00523873 0)
(1.06734 0.038172 0)
(1.05297 0.0233722 0)
(1.05269 0.0152194 0)
(1.1051 0.0766617 0)
(1.08091 0.0471707 0)
(1.0873 0.0377198 0)
(-0.0122447 1.8237 -4.98169e-22)
(-0.0201603 1.81483 0)
(-0.0151951 1.81614 0)
(-0.010528 1.84627 5.20691e-21)
(-0.0105301 1.84762 -1.99741e-22)
(-0.026056 1.81124 3.78101e-21)
(-0.0271464 1.80533 -3.81063e-21)
(-0.0283781 1.79853 0)
(-0.0277032 1.80048 0)
(-0.0280083 1.8002 0)
(-0.0246628 1.78458 0)
(-0.0163529 1.76092 0)
(0.405385 1.45198 3.28735e-19)
(0.414466 1.46116 1.28761e-19)
(0.608614 2.3878 -6.81089e-20)
(0.401125 2.52764 1.87576e-19)
(0.385244 2.07052 -5.00935e-21)
(1.02097 -0.00829606 0)
(1.01512 -0.00993911 0)
(1.01507 -0.0162179 0)
(1.00717 -0.00107928 0)
(1.00461 -0.00155984 0)
(1.00743 -0.0046404 0)
(1.00901 -0.00390981 0)
(1.01396 -0.00437812 0)
(1.02452 0.0205371 2.03976e-19)
(1.01895 0.0219646 -2.58862e-19)
(1.02451 0.0221706 -2.02424e-19)
(1.02029 0.0197715 2.53369e-19)
(0.770225 1.30442 0)
(0.70616 1.36328 2.39272e-19)
(0.863965 1.20719 1.35638e-19)
(0.920428 1.14878 -1.80238e-19)
(1.14064 2.60455 -1.99318e-19)
(0.835445 0.105376 1.29492e-19)
(1.11703 0.103591 0)
(1.1724 0.174548 2.6024e-21)
(1.1702 0.148248 1.05676e-22)
(0.97276 0.122764 0)
(0.172017 2.96391 5.16316e-20)
(0.12854 2.87117 -3.22541e-19)
(0.0421429 2.36084 2.14517e-19)
(0.108761 0.12597 -8.4605e-20)
(0.339758 3.43528 -1.74706e-19)
(0.198907 3.32776 0)
(0.231393 3.36939 2.27364e-19)
(0.265077 3.04594 -3.0976e-19)
(0.36991 3.20835 0)
(0.00759517 3.12028 1.21263e-20)
(0.0173229 3.12932 -1.56278e-19)
(0.0161098 3.12507 2.29198e-19)
(0.0384907 3.14009 0)
(0.0369097 3.15166 0)
(1.18015 2.65091 0)
(0.51424 0.850158 -1.00584e-19)
(1.03836 0.973683 -7.08515e-20)
(0.949533 1.05204 0)
(0.785593 0.938467 1.41448e-20)
(1.02374 0.867395 1.15853e-20)
(0.385766 0.474995 -2.39052e-19)
(0.710976 0.335209 -9.28947e-21)
(0.697489 0.28007 9.71256e-20)
(0.620031 0.426802 7.74804e-21)
(0.564351 0.398789 -3.18774e-19)
(0.691035 0.357515 0)
(0.727309 0.414831 1.61299e-19)
(0.728614 0.409192 0)
(0.660251 0.393865 0)
(0.647448 0.320026 0)
(0.746809 0.585041 6.4431e-20)
(1.17751 0.262031 -1.1907e-20)
(1.18502 0.398015 0)
(1.20294 0.341642 0)
(0.761653 0.217482 1.46243e-19)
(0.805223 0.515568 -8.21747e-20)
(0.72935 0.497121 1.35646e-19)
(0.913311 0.403013 -1.32321e-19)
(1.02217 0.0156756 1.39254e-19)
(1.01865 0.0139242 -1.41823e-19)
(1.01519 0.0176963 0)
(1.03076 -0.0159815 0)
(1.02808 -0.0123393 -1.291e-19)
(1.0232 -0.0199575 1.27979e-19)
(1.0301 0.00655653 0)
(1.0264 0.0171397 0)
(1.01124 0.00449058 0)
(1.01487 0.00878109 0)
(1.01548 0.00453682 0)
(1.01332 0.00209788 0)
(-0.148391 1.09223 0)
(-0.159531 1.10166 0)
(0.263166 1.08751 2.04145e-19)
(0.307195 1.40331 1.03253e-19)
(0.23661 1.27762 2.36695e-19)
(0.236141 1.31872 -3.74848e-19)
(0.373308 1.24116 0)
(0.355668 1.78459 2.09613e-19)
(0.242343 1.76069 0)
(0.410127 2.05099 7.23944e-21)
(0.386391 2.41372 9.22536e-20)
(0.511183 1.45716 -1.8316e-19)
(0.371957 1.38385 7.91432e-20)
(0.424844 1.24022 -6.38729e-20)
(0.394928 1.35069 1.27074e-19)
(0.363348 1.69633 0)
(0.399153 1.64947 -7.92264e-20)
(-0.376923 2.31622 5.11704e-20)
(-0.181924 2.54181 0)
(-0.186126 2.5273 -1.22937e-19)
(-0.28071 2.47176 0)
(-0.127563 2.6578 -7.26905e-21)
(-0.132933 2.59042 0)
(-0.252489 1.73959 1.73664e-20)
(-0.342099 1.82336 0)
(-0.288689 1.60475 0)
(-0.251781 1.62645 -1.95482e-20)
(-0.125282 2.15692 -2.82998e-20)
(-0.128552 2.37306 -1.6932e-21)
(-0.0740025 2.21801 3.64003e-23)
(-0.131786 1.85396 7.66831e-21)
(-0.169606 1.84895 1.48034e-21)
(-0.0606068 1.68458 0)
(-0.0377751 1.69817 0)
(-0.43691 1.92009 -7.78599e-20)
(-0.367306 1.64263 -8.35972e-20)
(-0.369942 1.80816 1.02276e-19)
(-0.419933 1.84898 0)
(-0.0228941 1.83536 -1.85166e-20)
(-0.0233635 1.84724 8.02038e-21)
(-0.0299718 1.85267 -2.58443e-21)
(-0.105437 1.83383 -9.26005e-21)
(-0.0620311 1.87691 -4.63815e-21)
(-0.0716167 1.88966 2.64761e-20)
(1.02343 0.0177308 -1.3559e-19)
(1.02152 0.0113789 1.37235e-19)
(1.01636 0.00774964 0)
(1.00073 0.0470097 1.97055e-19)
(0.993047 0.0339971 -2.27578e-19)
(0.966214 0.0215182 2.62059e-19)
(0.998721 0.0797108 -2.59093e-20)
(1.03089 -0.0142698 0)
(1.0357 0.0042462 1.18731e-19)
(1.02788 -0.0142588 -1.18011e-19)
(1.04877 0.041801 -6.58725e-21)
(1.04957 0.0284228 5.81382e-20)
(1.04494 0.0467198 0)
(1.03764 0.042003 -2.14147e-20)
(1.0319 0.0265302 0)
(1.02881 0.0187954 0)
(1.03552 0.00962363 0)
(1.03208 0.0130624 0)
(1.04053 0.025634 4.43043e-20)
(1.04273 0.0186114 -9.95013e-20)
(1.04056 0.0301753 -4.54407e-20)
(1.03998 0.0294852 -5.16515e-20)
(1.04327 0.0547552 9.62396e-20)
(1.0688 0.0498388 0)
(1.07291 0.0954325 0)
(-0.0210877 1.83521 -6.28485e-21)
(-0.0209762 1.81991 -5.20641e-22)
(-0.0216542 1.82175 0)
(-0.0139491 1.8336 6.37427e-21)
(-0.0136831 1.82642 9.83288e-22)
(-0.0125552 1.83148 -1.01221e-21)
(-0.0402538 1.89213 1.27056e-20)
(-0.0356325 1.86339 -9.74853e-22)
(-0.0497783 1.86939 4.97249e-21)
(-0.0208979 1.86528 -6.69855e-21)
(-0.0260451 1.86974 8.22223e-21)
(-0.0299432 1.8099 1.15184e-22)
(-0.0302524 1.81503 7.59379e-21)
(0.418983 1.40249 -1.61449e-19)
(0.400927 1.4131 -1.42178e-19)
(0.657351 1.40244 -2.30916e-19)
(0.523375 1.46408 -1.25389e-19)
(0.578521 1.43479 0)
(0.581578 2.37083 5.89321e-20)
(0.646794 2.35552 9.95365e-20)
(0.421781 2.47468 4.28683e-20)
(0.449365 2.56071 -6.51467e-20)
(0.551984 2.51271 1.32136e-19)
(0.523346 2.41774 0)
(0.536188 2.42332 -1.61428e-19)
(0.253018 2.59105 2.8201e-19)
(0.376153 2.53073 -1.65285e-20)
(0.278822 2.63112 -4.35144e-19)
(0.896302 2.36883 1.05743e-19)
(0.808335 2.35192 0)
(1.01124 -0.000148302 4.58217e-21)
(1.0155 -0.00534803 -3.81138e-21)
(1.01682 -0.00380348 -6.77319e-20)
(1.01528 -0.000350877 6.87396e-20)
(1.01247 0.000428371 0)
(0.629284 1.24786 0)
(0.626197 1.15418 0)
(0.721471 1.08313 0)
(0.620426 1.11539 0)
(1.17059 2.61674 2.73723e-20)
(1.05309 2.34889 0)
(0.867124 2.2321 -4.12384e-22)
(0.823452 2.49621 0)
(0.920634 2.57569 -1.26611e-21)
(0.963629 2.52461 8.24403e-22)
(0.841991 0.146533 0)
(0.812736 0.143175 3.65511e-20)
(0.923579 0.126119 1.92503e-19)
(0.863673 0.120788 -7.65496e-20)
(0.857905 0.0693985 -2.30978e-19)
(1.02117 0.206552 -1.32318e-19)
(0.953014 0.284148 -6.17194e-21)
(0.888032 0.269613 1.76776e-19)
(0.962792 0.199271 1.35231e-19)
(0.933091 0.1597 -2.43635e-19)
(0.909554 0.173641 3.11616e-20)
(0.930036 0.226947 -6.32726e-20)
(0.91072 0.192782 0)
(0.964651 0.158284 1.17237e-19)
(1.00219 0.159399 0)
(1.00043 0.189948 0)
(1.05836 0.107661 4.238e-20)
(1.03 0.15083 -5.69014e-21)
(1.019 0.20928 -2.18814e-20)
(1.05617 0.1854 0)
(1.01746 0.0245639 1.04786e-19)
(1.03343 0.0437751 1.24899e-19)
(1.03088 0.0319162 -1.02923e-19)
(1.02841 0.0484945 -8.41039e-20)
(1.00965 0.0517278 -1.39008e-19)
(0.973781 0.121612 0)
(0.984756 0.0758999 0)
(0.971265 0.0461714 -9.40988e-20)
(0.935092 0.0564431 3.88588e-20)
(1.01019 0.0794135 1.1932e-19)
(1.02985 0.10694 -1.26223e-19)
(1.03492 0.126729 1.12471e-19)
(0.995445 0.126271 0)
(1.03885 0.0955863 0)
(1.02749 0.0771949 -5.23471e-20)
(1.02442 0.0800808 -9.5799e-20)
(0.561939 1.07626 -2.56943e-20)
(0.616236 1.41828 6.12149e-20)
(1.14937 2.76166 2.90497e-20)
(1.22793 3.09044 -3.12927e-20)
(1.2371 2.71942 2.32574e-19)
(1.26928 2.71969 -1.48672e-19)
(1.15321 2.35227 8.7286e-21)
(1.21494 2.98331 6.99562e-20)
(1.23534 2.95138 -6.87374e-20)
(1.23441 3.24757 -1.35317e-19)
(1.3598 2.98419 1.58537e-19)
(1.30254 2.90631 0)
(0.508535 0.853417 -6.38983e-21)
(0.142957 1.28494 1.7001e-19)
(0.538231 0.545294 1.59489e-19)
(0.349721 0.30775 1.68967e-19)
(0.566499 0.443029 1.79427e-19)
(0.570369 0.498461 -2.82699e-19)
(0.552931 0.534728 2.31392e-19)
(0.516473 0.475933 -9.42633e-20)
(0.47203 0.405331 2.15283e-19)
(0.763768 0.268543 -8.23123e-20)
(0.733792 0.293487 0)
(0.724884 0.246543 4.11447e-21)
(0.72141 0.510083 8.31788e-20)
(0.705199 0.470868 -3.07132e-19)
(0.620032 0.506747 7.04217e-21)
(0.644132 0.475092 0)
(0.623172 0.738495 7.07663e-20)
(0.785265 0.760691 3.06679e-20)
(0.708474 0.847699 -3.92519e-20)
(0.825024 0.78677 -1.15249e-20)
(0.858789 0.821611 3.34379e-21)
(0.865085 0.822957 -3.43522e-21)
(0.791281 0.614961 -1.09271e-19)
(0.864204 0.689461 1.07436e-20)
(0.926517 0.697051 0)
(0.907811 0.665851 -1.57807e-20)
(0.984813 0.302577 3.14211e-20)
(1.06257 0.267698 1.84267e-20)
(1.00827 0.24479 5.33179e-20)
(0.970912 0.349394 -7.01043e-20)
(1.0064 0.405767 0)
(1.04669 0.394363 0)
(0.886719 0.338979 1.94648e-21)
(0.822157 0.284946 0)
(0.842263 0.282516 8.80112e-20)
(0.884992 0.28171 -4.22045e-21)
(0.902659 0.40143 3.63491e-19)
(0.855799 0.455932 9.35758e-20)
(0.86429 0.42376 -1.14724e-19)
(0.805832 0.41147 1.22908e-19)
(0.794389 0.411916 8.17834e-20)
(0.771185 0.404985 -7.96598e-20)
(1.02728 -0.00778674 1.09249e-19)
(1.01989 -0.00292188 0)
(1.018 -0.00144196 7.34485e-20)
(1.0225 -0.00391876 -1.65189e-19)
(1.02294 0.00195927 7.97589e-20)
(1.02064 0.0109177 -1.6809e-19)
(1.0225 0.0108874 0)
(1.0225 0.0108372 -3.484e-20)
(1.01662 0.00648522 8.79006e-20)
(1.01682 0.00952825 -4.48694e-20)
(1.01764 0.00854733 3.27757e-20)
(-0.216584 1.40459 0)
(-0.327098 1.54889 0)
(-0.219425 1.24213 0)
(-0.166554 1.26181 0)
(-0.232216 1.41839 -4.51298e-19)
(0.00109752 1.22346 1.55117e-19)
(0.0828386 1.73174 1.25945e-19)
(0.0882182 1.37392 -9.17541e-20)
(-0.389895 1.62562 1.41359e-19)
(-0.391307 1.60911 -1.07965e-19)
(-0.277747 1.35581 5.30458e-20)
(-0.281172 1.37627 1.99814e-19)
(-0.291966 1.40409 2.21834e-20)
(-0.346455 1.51297 1.56419e-20)
(-0.135458 2.5702 1.33194e-19)
(0.00911306 2.64392 0)
(0.141138 2.34395 -2.41587e-20)
(0.0617741 1.88945 -7.86947e-20)
(0.375897 2.13573 1.42337e-20)
(0.278508 2.52794 0)
(0.291001 2.45983 -7.65061e-20)
(0.404861 2.42781 5.24559e-20)
(0.322293 2.1629 4.88204e-20)
(0.219885 2.33917 8.03845e-21)
(0.148098 2.53203 0)
(-0.38431 2.08383 7.0828e-20)
(-0.276084 2.11736 -1.24828e-20)
(-0.329583 2.04432 0)
(-0.307459 2.28196 -3.53761e-22)
(-0.388459 2.26762 -3.11367e-20)
(-0.155899 1.71758 5.07379e-22)
(-0.106347 1.73216 -1.79947e-21)
(-0.103285 1.76401 3.67535e-22)
(-0.162058 1.77371 5.06747e-22)
(-0.217786 1.75424 0)
(-0.0837991 1.76534 0)
(-0.0261234 1.76364 6.24579e-21)
(-0.0452529 1.78439 -1.86144e-21)
(-0.0590487 1.77202 0)
(-0.0369103 1.73365 4.39161e-21)
(-0.0190408 1.73357 -9.14244e-21)
(1.03583 0.00476509 0)
(1.04309 0.0104528 -1.10355e-20)
(1.04528 0.0180874 -7.90777e-20)
(1.04383 0.0192325 0)
(1.04432 0.0205766 0)
(1.04602 0.00711355 -2.44874e-21)
(1.04124 0.00520739 1.31591e-19)
(1.04248 0.0117957 1.59547e-19)
(1.0341 0.0146744 0)
(1.03205 0.0118151 0)
(1.04136 0.0177962 8.04254e-20)
(1.03185 0.0119383 0)
(1.03237 0.0112233 0)
(-0.0516293 1.83685 0)
(-0.035074 1.81408 1.16496e-21)
(-0.0380312 1.83235 4.12585e-21)
(-0.035262 1.78793 0)
(-0.0422084 1.81093 3.96933e-21)
(-0.0345017 1.80419 -2.49541e-21)
(-0.034989 1.79947 0)
(0.343011 1.73317 0)
(0.365945 1.35321 2.18065e-19)
(0.328125 1.39327 0)
(0.418683 1.30899 -2.9801e-19)
(0.484521 1.40937 0)
(0.441955 1.40193 1.47798e-19)
(1.01777 2.70229 -2.11323e-21)
(0.931846 2.41006 -1.29522e-19)
(0.848866 2.13387 1.94575e-19)
(0.828523 2.35148 5.85607e-20)
(0.836708 2.53528 0)
(0.897589 2.51993 0)
(0.857762 2.37152 0)
(0.891749 2.31152 -2.02637e-19)
(0.672007 2.50966 -2.27425e-20)
(0.80224 2.51431 -8.20457e-21)
(0.80736 2.47782 6.5075e-21)
(0.66912 2.33957 0)
(0.775675 2.3468 0)
(0.736385 2.34436 -9.99381e-20)
(0.746013 2.51715 0)
(0.572222 1.0884 0)
(0.461698 0.919138 -1.26958e-20)
(0.52456 0.938758 -1.70149e-21)
(0.496406 1.04541 0)
(0.498406 1.0064 2.04943e-20)
(0.72939 0.876454 9.53775e-22)
(0.755845 0.997943 0)
(0.725254 0.945735 -1.48365e-20)
(0.583572 1.03259 0)
(0.608871 0.931612 0)
(1.15303 2.76797 6.47555e-21)
(1.12822 2.83695 3.67838e-20)
(0.937386 2.35968 -9.07318e-20)
(0.89938 2.33149 6.23082e-21)
(1.115 2.73276 0)
(1.06654 2.70167 -7.58838e-21)
(1.0674 2.47336 -4.73012e-20)
(0.961251 2.20786 -1.32849e-20)
(0.498894 1.36099 0)
(0.490496 1.06003 2.2503e-20)
(0.554034 1.12776 0)
(0.857959 0.208012 0)
(0.819202 0.159209 0)
(0.77754 0.157548 0)
(0.842179 0.223358 -1.39089e-19)
(0.784921 0.227698 8.64766e-20)
(0.938962 0.0521739 -8.06635e-20)
(0.944979 0.0986548 0)
(0.922622 0.101313 3.59932e-20)
(0.889934 0.081985 1.47287e-19)
(0.886 0.0498232 -9.11384e-20)
(1.17139 3.38302 -4.11476e-19)
(1.22121 3.29945 0)
(1.14098 3.40005 -7.8346e-19)
(0.641469 3.55871 6.89981e-19)
(0.852957 3.11804 1.42313e-19)
(0.488765 0.876469 9.94051e-20)
(0.40446 0.862858 0)
(0.342029 0.577111 -3.53955e-20)
(0.429252 0.692334 1.6459e-19)
(0.535064 0.550251 -4.90546e-20)
(0.517818 0.569911 5.49586e-20)
(0.633862 0.547184 1.18716e-19)
(0.666783 0.54422 0)
(0.616017 0.630702 0)
(0.575866 0.56707 0)
(0.919423 0.574638 -1.26062e-20)
(0.854778 0.50615 -8.99754e-20)
(0.875315 0.540529 5.15283e-20)
(0.918029 0.48436 -6.68877e-20)
(1.01632 0.468352 0)
(1.01679 0.536531 -7.44039e-21)
(0.830288 0.372444 -1.79817e-19)
(0.832266 0.358418 -2.07266e-19)
(0.793127 0.370994 1.40425e-19)
(0.777873 0.350932 -1.55082e-19)
(0.823469 0.304867 -1.1742e-19)
(0.780983 0.304516 1.44444e-19)
(1.02881 0.00116595 -8.3988e-20)
(1.03055 -0.000237713 1.73614e-19)
(1.02791 -0.00893908 1.04143e-19)
(1.0334 -0.0110702 -1.27181e-19)
(1.03838 -0.000948675 0)
(1.03611 0.00150949 -2.07492e-19)
(-0.412131 1.99415 -2.09905e-20)
(-0.399396 1.82869 0)
(-0.248925 1.93753 -3.70808e-19)
(-0.111049 1.89823 3.43416e-19)
(-0.0649274 1.6981 -2.34683e-19)
(-0.288412 1.72828 0)
(-0.0941183 1.83049 0)
(-0.0779796 1.7897 -1.94095e-21)
(-0.0572958 1.79116 1.74582e-21)
(-0.0513207 1.80892 1.51203e-21)
(-0.0629672 1.83916 -4.80183e-21)
(-0.0721927 1.83616 3.72883e-21)
(0.496363 1.38135 1.50274e-19)
(0.481058 1.39775 -1.58513e-19)
(0.446595 1.29529 1.55514e-19)
(0.398213 1.3132 -9.43383e-21)
(0.620049 1.2886 0)
(0.549605 1.37871 2.00938e-19)
(0.571331 1.3527 -1.94835e-19)
(0.47133 1.26514 -1.51671e-19)
(0.508502 1.22162 0)
(0.556319 1.17646 0)
(0.616949 2.4591 3.41105e-20)
(0.666248 2.47562 2.52839e-19)
(0.695311 2.49195 -1.72235e-19)
(0.59748 2.47551 -5.27156e-20)
(0.551458 2.56778 6.1562e-20)
(0.558552 2.54188 -1.62311e-19)
(0.948848 2.35312 -1.06268e-19)
(0.992347 2.37599 0)
(0.879882 2.11872 -1.38008e-19)
(1.03629 2.68479 0)
(1.035 2.67266 0)
(0.615467 2.28287 7.33101e-20)
(1.02376 3.17137 1.82967e-19)
(0.892146 3.03376 -1.37655e-19)
(0.303628 0.974382 0)
(0.354958 0.831256 -6.66344e-20)
(0.47553 0.781186 -3.13291e-20)
(0.428049 2.02219 0)
(0.486487 2.79829 -1.00738e-19)
(0.446548 2.58441 0)
(0.63467 0.677409 -1.4651e-19)
(0.707116 0.667387 1.88002e-19)
(0.741788 0.604398 -1.83207e-19)
(0.632718 0.645025 -2.12989e-20)
(0.684083 0.599511 -8.68269e-20)
(1.00749 2.78342 -1.38169e-19)
(1.03334 2.85381 1.19139e-19)
(0.667116 2.19002 4.83033e-20)
(0.584372 1.74983 -4.31791e-20)
(0.697732 1.9403 2.76532e-20)
(0.98586 2.49121 -2.71541e-20)
(0.987679 2.4929 -6.68806e-20)
(0.675706 1.91579 -2.50703e-21)
(0.442934 1.36037 -2.09314e-20)
)
;

boundaryField
{
    wall-4
    {
        type            noSlip;
    }
    velocity-inlet-5
    {
        type            fixedValue;
        value           uniform (1 0 0);
    }
    velocity-inlet-6
    {
        type            fixedValue;
        value           uniform (0 3 0);
    }
    pressure-outlet-7
    {
        type            zeroGradient;
    }
    wall-8
    {
        type            noSlip;
    }
    frontAndBackPlanes
    {
        type            empty;
    }
}


// ************************************************************************* //
