/*--------------------------------*- C++ -*----------------------------------*\
| =========                 |                                                 |
| \\      /  F ield         | OpenFOAM: The Open Source CFD Toolbox           |
|  \\    /   O peration     | Version:  4.0                                   |
|   \\  /    A nd           | Web:      www.OpenFOAM.org                      |
|    \\/     M anipulation  |                                                 |
\*---------------------------------------------------------------------------*/
FoamFile
{
    version     2.0;
    format      ascii;
    class       volScalarField;
    location    "48";
    object      p;
}
// * * * * * * * * * * * * * * * * * * * * * * * * * * * * * * * * * * * * * //

dimensions      [0 2 -2 0 0 0 0];

internalField   nonuniform List<scalar> 
918
(
0.569247
1.21089
-0.000772764
0.568512
-0.0118355
1.17851
-0.487069
0.710348
0.549131
-0.0837197
-0.0147513
0.546432
1.03942
0.806309
-1.10461
-0.00185608
0.665958
-0.375295
0.548533
-0.0302295
0.74232
0.555569
0.558591
0.548982
0.616873
0.784963
0.920263
0.0290306
0.00399489
-0.000514018
-0.0111243
-0.0423583
-0.031865
1.06187
1.11249
1.13508
0.517521
0.356582
-0.340945
-0.420948
-0.412764
-0.531716
0.705657
0.70369
-0.183684
0.713519
0.71853
0.536645
0.548472
0.54942
0.550485
0.549448
0.550868
0.424868
-0.0874776
-0.122404
-0.0636878
-0.0526188
0.0778632
-0.014967
-0.0168068
-0.0139403
-0.0130568
0.466918
0.541332
0.538481
0.551274
0.560839
1.14964
1.12069
1.14629
1.06329
1.0781
1.01711
0.989157
0.826481
0.847919
0.79337
0.779399
-1.52213
-2.47762
-0.521395
-0.270029
-0.00998187
0.00721573
0.0181875
0.660572
0.660049
0.667451
0.67607
1.10577
-0.343287
-0.492072
0.548343
0.547327
0.555424
0.555784
0.55295
0.55103
-0.0244115
-0.0209769
-0.0318949
-0.0309572
-0.0309715
0.730845
0.729875
0.550658
0.547248
0.566009
0.585595
0.579504
0.295104
0.618646
0.63026
0.608894
0.774887
0.769736
0.777811
0.894717
0.858946
0.95749
0.980715
0.0164126
0.0010814
-0.00970611
-0.0148915
-0.0145137
0.513411
0.505319
0.532669
0.520938
0.523389
0.273336
0.140402
0.449948
0.478324
-0.258541
-0.330307
-0.40555
-0.438316
-0.535171
0.642777
0.695841
0.693751
-0.18986
-0.127551
-0.256029
-0.0437297
-0.110215
0.526936
0.533947
0.528293
0.544014
0.538722
0.540325
0.552791
0.549857
0.551378
0.485106
0.587869
0.356301
0.317043
-0.231977
-0.134665
-0.228138
-0.039879
-0.0351812
0.0927073
0.118493
0.0658386
0.0579335
-0.0296469
-0.0205978
-0.0245975
-0.0113728
-0.0140022
0.461362
0.451081
0.480585
0.487867
0.531347
0.532401
0.53573
0.534197
0.939322
0.961843
0.970415
0.943938
-3.4894
-6.53824
0.0525038
0.192714
-0.00530612
-0.00975623
0.00361296
-0.00301042
0.00190207
-0.000615335
0.0156115
0.0136593
0.0181816
0.0214701
0.652268
0.652349
1.0115
1.00731
0.973403
0.916141
0.536606
0.538705
0.544177
0.539695
-0.0138936
-0.0169221
-0.0149562
0.72078
0.726725
0.724672
0.257475
0.170235
0.346136
0.374932
0.645471
0.634679
0.643792
0.67065
0.707277
0.987162
1.00507
1.00522
1.01322
1.0583
1.07119
1.03701
0.493474
0.503113
0.498596
0.535798
0.533536
0.534416
0.530227
0.531491
0.528961
-0.0289126
-0.388656
0.540055
0.553403
0.536038
0.539956
0.713678
0.780894
0.676891
0.686153
0.68436
0.0249868
-0.0368133
0.272342
0.239349
0.401364
0.437604
0.414485
0.91053
0.872204
0.922204
0.895213
0.855348
0.881202
-0.427543
-1.66223
-0.925768
0.55138
0.360544
0.449474
0.0377868
0.0165578
0.0220151
0.995714
1.08463
0.63564
0.823977
0.871768
0.742764
0.772932
0.833341
0.759576
0.792983
0.824788
0.803363
0.600269
0.553917
0.558456
0.843249
0.896863
0.147711
0.0937479
0.0378994
0.135999
0.18963
0.164624
1.03282
0.950662
1.02297
0.546864
0.54748
0.00368806
0.0013793
0.551698
0.551898
-0.00601781
0.006597
0.435729
-0.798077
0.121061
0.53987
0.530071
0.54708
-0.0738697
0.386794
-0.0144347
0.0767937
0.0168173
0.543138
0.477856
0.43918
-0.000596095
-0.00597644
-0.0253922
-0.215602
0.544377
0.542528
0.546595
0.547634
0.548276
-0.0170283
-0.00497707
-0.00633467
-0.0251431
-0.0214847
-0.0311398
0.511572
0.529461
-0.155411
0.546721
0.548929
0.548739
0.541633
0.547475
0.545411
0.00427048
-0.00554235
-0.00930728
0.24442
0.371333
0.675803
0.773298
0.64889
0.415273
0.162896
0.58104
0.643549
0.552255
0.702336
0.690256
0.708144
0.193264
0.0309669
0.195055
0.135367
0.538067
0.536479
0.528472
0.525413
0.542043
0.540223
0.54463
0.541591
0.544493
0.545931
-0.0254833
-0.0523832
-0.0651722
-0.139673
0.342294
0.609991
0.278048
0.31899
0.162509
-0.0107753
-0.0121688
-0.0147383
-0.0214765
0.0342762
0.000873327
0.0738813
0.0714803
0.0412202
0.0121048
0.0237414
0.00623831
0.0113984
0.536376
0.534842
0.5412
0.549985
0.487401
0.491108
0.456545
0.477024
0.461993
0.403825
0.438656
0.413726
0.00139269
0.00453753
-0.000790761
-0.00247914
0.00298522
-0.00581834
-0.0120607
-0.00947227
-0.00665591
-0.0135023
-0.0193917
-0.0170949
-0.170309
-0.281215
1.00828
0.938778
0.134391
0.533351
0.539945
0.536552
0.54159
0.544649
0.545493
0.543248
0.539815
0.529979
0.53168
0.528317
0.529015
-0.0820959
-0.230572
-0.0625268
-0.128943
0.147832
0.635647
0.382439
0.309316
0.310248
0.540201
0.955926
0.715264
0.695264
0.728439
-0.341112
0.0287525
-0.28194
0.308079
0.134306
0.677088
0.726362
0.748533
0.695353
0.64922
-0.230068
0.559272
-0.0499777
-0.00289911
0.204166
0.0893032
0.710217
0.674374
0.679095
0.697134
0.716371
0.677935
0.662223
0.658825
0.693234
0.697712
0.507702
0.277592
0.221893
0.188743
0.658354
0.544221
0.596095
0.510782
0.533013
0.535738
0.534293
0.516405
0.523833
0.519423
0.525611
0.528908
0.538025
0.538624
0.533615
0.535883
-0.0243721
-0.029348
-0.000340257
-0.121768
-0.110611
-0.196129
-0.0354581
0.0833807
0.0510238
0.249627
0.330377
0.0590053
-0.035294
-0.00916945
0.0148352
0.185018
0.242568
0.100013
0.18079
0.178138
0.157589
0.272804
0.268782
0.0030455
-0.00264638
-0.00414729
-0.00499044
0.0458445
0.114334
0.13162
0.0231227
0.0189672
-0.00805033
-0.0072715
0.00250851
-0.00144409
0.00252734
0.037736
-0.0611154
-0.00682414
0.0141407
0.0286242
0.023656
0.0119886
0.529133
0.53124
0.531065
0.539054
0.556835
0.573237
0.529358
0.509898
0.500508
0.503308
0.476746
0.487297
0.482561
0.495613
0.516884
0.526016
0.523874
0.526652
0.509528
0.511228
0.498023
0.5013
0.477987
0.458739
0.446438
-0.0126211
0.0141039
0.0275969
-0.0234059
0.00367547
-0.00888905
0.0128672
0.034584
0.0180871
0.00911031
-6.63482e-05
-0.00567407
-0.000783896
-0.0649057
0.0242115
-0.16974
-0.208378
-0.283946
0.910003
1.01739
0.831185
0.596976
0.611379
0.859532
0.941861
0.567809
0.741791
0.770072
0.616694
0.857639
0.538435
0.537982
0.535526
0.535059
0.536393
0.00952069
0.116764
0.112469
0.180334
0.293551
0.415345
0.325452
0.196461
0.326716
0.316205
0.626337
0.641795
0.599136
0.621988
0.623856
0.442464
0.517788
0.570932
0.529836
0.577421
0.596157
0.555971
0.585058
0.538509
0.491203
0.490453
0.440677
0.452845
0.431603
0.415818
0.528669
0.505079
0.515837
0.506111
0.527154
0.549957
0.544737
0.58019
0.591184
0.511014
0.467606
0.47468
0.507855
0.468256
0.483497
0.498467
0.243714
0.172123
0.212313
-0.0786474
0.00451223
-0.0714415
-0.10267
0.0151762
0.314928
-0.422256
-0.485584
-1.03946
0.505879
1.02932
0.662299
0.606068
0.713952
0.693588
0.69634
0.722139
0.722779
0.649916
0.666427
0.671451
0.627959
0.650434
0.678654
0.673252
0.543769
0.393476
0.387193
0.34552
0.221047
0.260539
0.461061
0.376003
0.301933
0.315821
0.478235
0.370688
0.437
0.464285
0.38467
0.356857
0.551932
0.622378
0.612201
0.585152
0.505189
0.517308
0.546119
0.579966
0.604639
0.640606
0.525036
0.531013
0.532301
0.529829
0.526937
0.529873
0.530094
0.53272
0.533434
0.536566
0.535532
-0.0172893
-0.00639868
-0.0181575
-0.0280571
0.00197104
-0.000909035
0.0472844
0.0322607
0.0140688
0.0203027
-0.00522497
-0.00544044
-0.00286757
0.00463835
0.12637
0.125938
0.106701
0.0753048
0.253969
0.391653
0.456208
0.334387
0.243983
0.269442
0.281651
0.0101455
0.0373274
0.0275588
0.0624509
0.0593873
-0.00692675
-0.0100105
-0.00837028
-0.00160688
0.00962901
-0.00836771
-0.0127836
-0.00473645
-0.00761542
-0.00794767
-0.0134001
0.512486
0.506142
0.506542
0.5012
0.500281
0.513181
0.517511
0.520042
0.525421
0.527336
0.518007
0.523231
0.526807
0.0135878
-0.0153604
-0.0237029
-0.00190491
-0.00985384
-0.00585337
-0.00661499
0.137007
0.0665786
0.0634253
0.0215591
-0.110219
-0.0530958
0.508546
0.511062
0.514356
0.733961
0.586842
0.5126
0.616246
0.715027
0.285331
0.478118
0.314077
0.897621
0.788622
0.934526
0.542071
0.250839
0.413989
0.470005
0.261987
0.339647
0.332636
0.232273
0.26091
0.288079
0.392147
0.283549
0.267782
0.0186695
0.213722
0.328094
0.314902
0.43981
0.507109
0.266862
0.193873
0.161229
0.616348
0.634676
0.653464
0.624314
0.646591
0.589636
0.577314
0.59643
0.605521
0.601102
-0.765794
-0.472779
-1.38879
-0.680356
-0.237913
0.538413
0.505958
0.778317
0.659405
0.709167
0.694494
0.663004
0.628894
0.645095
0.673449
0.372931
0.478459
0.45575
0.458048
0.351033
0.294345
0.591418
0.583659
0.622396
0.645003
0.61305
0.646204
0.522863
0.522591
0.522001
0.518648
0.51708
0.519187
0.0833279
0.0506959
0.0953598
0.0748787
0.0500382
0.0343294
0.0232158
0.0126236
-0.000465005
-0.00308226
0.0169341
0.0224712
0.172214
0.109611
0.0384163
0.0654181
0.00578891
-0.0639455
-0.0825275
0.0210045
0.115495
0.116282
0.421675
0.660769
0.480417
0.650137
0.515454
0.54693
0.503683
0.498139
0.524474
0.410621
0.484677
0.307056
-0.230506
-0.110389
0.763929
0.822812
0.598378
0.474215
0.182766
0.305561
0.567889
0.491054
0.532215
0.60465
0.593711
0.0295052
0.0538614
0.399577
0.601085
0.25679
0.189617
0.206491
0.371471
0.324975
)
;

boundaryField
{
    wall-4
    {
        type            zeroGradient;
    }
    velocity-inlet-5
    {
        type            zeroGradient;
    }
    velocity-inlet-6
    {
        type            zeroGradient;
    }
    pressure-outlet-7
    {
        type            fixedValue;
        value           uniform 0;
    }
    wall-8
    {
        type            zeroGradient;
    }
    frontAndBackPlanes
    {
        type            empty;
    }
}


// ************************************************************************* //
