/*--------------------------------*- C++ -*----------------------------------*\
| =========                 |                                                 |
| \\      /  F ield         | OpenFOAM: The Open Source CFD Toolbox           |
|  \\    /   O peration     | Version:  4.0                                   |
|   \\  /    A nd           | Web:      www.OpenFOAM.org                      |
|    \\/     M anipulation  |                                                 |
\*---------------------------------------------------------------------------*/
FoamFile
{
    version     2.0;
    format      ascii;
    class       surfaceScalarField;
    location    "48";
    object      phi;
}
// * * * * * * * * * * * * * * * * * * * * * * * * * * * * * * * * * * * * * //

dimensions      [0 3 -1 0 0 0 0];

internalField   nonuniform List<scalar> 
1300
(
3.75095
5.62643
-3.21948
3.75095
-7.74814
5.62643
-4.36745
4.36745
-0.690764
0.690764
1.87646
1.87449
-2.93756
2.93756
-2.42514
2.42514
-2.54135
2.54135
-5.24646
5.24646
-5.06833
5.06833
4.65714
-4.65714
-6.27662
6.27662
-1.04122
1.04122
-3.8306
3.8306
3.16872
-3.16872
-2.24854
2.24854
-0.13924
0.13924
-0.553129
4.30408
3.19782
3.19782
-2.01054
2.01054
-4.86715
4.86715
6.21767
-6.21767
5.23575
-5.23575
-2.01627
-2.39607
1.82638
-11.5905
-5.92175
-5.92175
-8.44023
8.44023
-2.8138
2.81263
2.9452
-2.9452
-1.86693
1.86693
-4.29408
-0.0733765
-4.29408
4.36826
-0.000808693
4.36826
-0.76817
0.0774058
-0.76817
3.95716
-3.95716
0.579808
0.110956
0.579808
3.06524
-3.06524
-1.87718
3.75364
1.87378
-1.87179
6.17587
-1.87916
3.75366
-5.97335
5.97335
-3.1463
0.208736
-3.1463
2.75508
0.182479
2.75508
-6.80185
6.80185
-2.46062
0.035475
-2.46062
2.38565
0.0394949
2.38565
2.8726
-2.8726
-2.64784
0.106488
-2.64784
2.42764
0.113714
2.42764
0.353673
5.27276
-5.9801
8.79273
-5.27276
0.0262962
5.20828
0.0381782
5.20828
-5.10561
0.0372785
-5.10561
5.01226
0.0560675
5.01226
4.73129
-0.0741489
4.73129
-4.78311
0.125962
-4.78311
-3.40084
-4.05014
-6.42643
0.149808
-6.42643
-1.09077
0.0495501
-1.09077
0.978308
0.0629131
0.978308
-3.65438
3.65438
-4.13592
0.305322
-4.13592
3.12256
0.0461587
3.12256
1.86902
1.88193
5.61998
-5.61998
2.45126
-2.25723
0.00869365
-2.25723
-2.26419
-2.97156
2.26419
-0.0156533
-0.368766
0.229525
-0.368766
3.16013
0.0376917
3.16013
2.27178
0.155863
-2.27178
0.261234
3.25071
-3.25071
1.34264
0.667904
1.34264
-5.56732
5.56732
4.95442
0.0578416
-4.95442
0.0872757
6.1561
0.061568
6.1561
-6.19976
-0.0179069
-6.19976
2.58741
-4.98347
-2.56335
6.09843
0.178199
-6.09843
0.176671
2.91601
0.0291918
2.91601
-2.91861
2.91861
-2.98437
0.0391719
-2.98437
-2.24814
0.38121
-2.24814
1.58332
0.283605
1.58332
-4.19191
-0.102165
-4.19191
-4.28155
0.14563
4.28155
0.08671
1.1917
-1.1917
-0.868346
0.100176
-0.868346
-4.07009
-0.121821
4.07009
-0.112934
-3.8302
-0.126957
-3.8302
-3.02423
0.0398532
3.02423
0.0410101
3.11322
0.0469079
-3.11322
0.0479873
-1.87089
3.75282
-1.88006
3.75384
-5.59993
-0.373417
-5.59993
6.28186
-0.308513
6.28186
3.50539
0.325208
-3.50539
0.359097
2.61833
0.136745
2.61833
-6.76479
-0.0370607
-6.76479
6.78808
0.0137708
6.78808
2.52438
0.093953
-2.52438
0.0637626
2.34206
0.0435846
2.34206
2.89326
-0.0206563
2.89326
-2.87004
-0.00255703
-2.87004
2.79586
-2.79586
2.7264
0.0694554
-2.7264
0.0785616
-11.1329
11.115
-0.0352198
-11.0977
5.17306
5.17306
4.14586
0.585429
4.14586
-4.99819
0.215087
-4.99819
2.70659
-5.26994
3.04919
-6.45003
4.68034
-16.2708
4.33144
-8.38159
6.65817
-6.65817
6.55219
0.105985
-6.55219
0.125756
-1.17865
0.0878841
-1.17865
-3.0557
-0.598673
-3.0557
4.30006
-0.645681
4.30006
-3.02755
3.02755
-3.07658
0.0490354
3.07658
0.0459766
2.29966
0.0424035
-2.29966
0.0424311
0.475142
0.104666
-0.475142
0.106376
3.44558
-0.19487
3.44558
-3.06037
-0.190341
-3.06037
-1.26349
0.0848319
1.26349
0.0791529
-5.81687
0.249548
-5.81687
-11.1908
0.0931396
-11.1526
-6.10662
-6.10662
2.33361
11.1263
-2.89044
0.020391
2.89044
0.0255748
2.9741
0.0534516
-2.9741
0.0554832
-2.85965
0.0637906
2.85965
0.0589636
-2.62994
0.381806
-2.62994
-1.17682
1.17682
-1.34794
0.171117
1.34794
0.235387
1.42783
-0.236132
1.42783
0.928073
0.0502344
-0.928073
0.0597272
-3.72867
-0.10153
-3.72867
6.51592
-0.234057
6.51592
-2.95095
-0.109421
2.95095
-0.0576917
-0.0334147
11.1484
-5.13965
0.03404
5.13965
-11.21
11.244
-3.25496
0.625016
3.25496
0.890903
5.28936
0.277964
-5.28936
0.291164
6.73968
0.0484031
-6.73968
0.0815022
-2.57355
-0.482157
-2.57355
-5.03572
-0.564212
5.03572
-0.735664
-11.474
-0.202622
11.6766
-11.4179
6.01949
0.136607
-6.01949
11.3806
-1.1137
-0.0780014
1.1137
0.0631195
1.73027
-0.30244
1.73027
3.62991
-0.184327
-3.62991
-0.0987619
-6.67162
-0.0931713
6.67162
-0.155696
-2.13069
-0.44286
2.13069
-0.400417
-4.26692
4.30461
1.90895
-2.44835
-2.53513
-5.4199
1.85151
1.90131
4.30276
-10.196
-6.07483
-10.0193
7.25567
-6.96451
-9.26001
9.18586
7.76922
-7.89618
-5.78693
5.8329
6.48287
-6.44186
1.87877
1.87486
7.90208
-7.69334
-15.6322
15.2588
7.44553
-7.41006
15.7707
-15.8077
-17.8622
17.9106
-5.70625
5.81274
-6.73328
6.73072
-6.95509
6.89739
-2.88386
-3.56617
13.1576
-13.0078
8.47396
-8.46527
-8.58293
8.88825
3.382
0.922611
3.42891
-1.88229
3.76107
-1.87136
3.78032
2.66774
-5.5516
2.60219
-5.13732
4.24151
4.23245
-4.22586
-1.19404
-5.92073
5.94992
-5.81966
5.87862
9.03046
-9.10384
-1.88521
3.76007
-1.86863
3.76995
-3.4265
-2.36043
3.38034
0.922421
8.10784
5.0498
-8.28604
-1.73328
-7.99946
7.81514
-8.19372
8.00338
-0.432643
5.81736
-5.38471
4.4345
-1.55916
7.37652
5.69651
5.91159
5.86258
-5.58462
1.10192
-6.48664
-6.39936
-2.40774
2.50792
2.33324
-2.22229
6.04635
1.72287
5.93342
-5.72078
-2.1754
-5.82231
3.82166
2.01124
3.8707
4.07722
2.40565
4.11708
3.03054
-3.03565
0.00510967
-3.05636
6.0869
0.724417
-5.41679
-4.49436
4.9343
2.96778
5.11678
-5.48752
-2.20583
-5.12842
-9.53866
-6.09353
-10.1029
10.1
5.1588
9.79146
-11.9721
11.8165
4.75437
2.69116
4.79387
-4.89071
-2.51935
-4.82694
11.6121
-2.59908
-9.01302
-10.3251
-7.5371
10.3114
5.45931
10.9751
6.9355
11.0566
4.4248
7.18731
-9.8841
2.34701
-3.86483
-1.84142
-3.78627
3.67977
2.13297
3.79348
-4.21486
-2.51841
-4.19447
-4.28989
-2.6652
4.31055
2.42018
-4.40694
-3.78678
4.51636
2.38104
4.03624
-10.1111
4.34535
-7.91152
-9.22003
-3.7878
-9.09427
3.46315
2.62114
-6.08429
-2.08845
8.41981
-4.18736
7.22577
-5.15626
-3.30901
-5.11383
-6.81497
-1.76796
-6.66934
-8.85573
8.37357
-9.17812
8.53243
12.5818
-5.68112
-6.90071
-3.96852
-2.47334
3.92053
-0.491628
-3.71063
3.71574
0.0504345
3.83075
4.75336
4.26174
-3.88712
-1.93254
-3.83164
3.82997
2.04866
3.89376
6.78111
2.24935
6.78031
-6.53605
-2.56779
-6.63821
9.03373
-8.65252
2.89256
-2.80773
5.36822
2.63516
-5.17335
-2.82612
6.20294
-3.2086
-2.99434
-12.2128
10.5717
1.64109
-4.83627
-0.401771
-0.262531
-5.48456
-3.77544
5.3586
0.552993
11.1247
7.34925
-5.51122
5.76077
6.16537
6.22321
-0.176151
5.76921
-5.1442
5.30315
-2.50026
-2.80289
5.40114
-5.52296
-1.23707
-5.39777
4.1607
0.410452
1.61061
-1.38109
-1.8687
-0.539046
-1.80897
1.40095
0.93229
1.50562
0.924091
1.58383
-2.93602
0.56105
2.37497
-2.01193
-1.66124
-3.72965
-1.1466
4.87625
5.73732
2.07782
-5.63856
-0.183751
2.61219
-2.54927
-0.735021
-2.99463
2.21277
-2.94779
-3.67975
-1.96839
5.64814
-3.37094
-0.460695
3.31749
0.553202
-3.82596
-2.09476
3.78679
0.330285
-3.12624
6.18858
-3.06233
-5.05878
2.52848
3.55842
4.53973
-4.78893
2.44655
2.34238
-1.23051
4.2173
0.899477
4.35405
-6.78693
4.58111
5.7553
3.13296
-6.0805
0.952082
-5.83485
8.47454
-7.28634
-1.1882
4.12711
4.34743
7.12155
5.46028
-5.72788
12.8494
-1.17913
-6.10721
7.01398
-3.88103
4.77127
-8.65229
-10.2315
4.12433
-9.17941
10.9344
-1.75497
-3.6277
-8.34445
12.8071
-1.21295
-11.5942
8.57851
-4.18321
-4.27484
8.45805
-6.78229
6.79419
-1.96559
-4.8286
-10.1092
-5.69852
10.2024
1.61408
-9.83962
12.1866
-2.65232
4.07505
0.71882
4.11863
3.24878
-5.41187
2.16309
3.53351
-5.49909
2.07436
-7.48624
-6.72452
12.0849
-5.36041
-10.5123
-9.5106
-1.00173
2.53453
9.6521
-9.47002
7.44225
2.02777
3.30632
0.587439
-3.37578
-0.410493
0.235345
4.53342
-4.76876
4.02883
4.18469
3.32357
1.20984
3.84273
2.10719
-3.8683
-0.326173
-4.15684
1.49165
-1.73667
-3.68609
5.17773
-4.06916
0.383068
-2.74188
-3.50251
6.24439
-4.5833
3.03631
3.15227
5.08497
-4.91228
1.40976
-2.39724
-2.51504
2.65939
-4.39606
1.98194
3.19579
4.36298
0.576194
5.87351
6.21142
-8.49465
0.583132
11.2612
-9.52794
2.45618
8.60046
-9.89843
0.387833
-8.70644
1.02036
-5.20772
-5.06394
5.09826
-6.86622
-3.55404
6.15616
0.624148
-6.24287
-0.42647
-6.03363
-2.8221
-6.47649
-3.04475
-6.13337
-8.77263
-1.64154
-7.13109
6.73204
-6.67926
-3.42361
7.41492
1.11751
-7.39838
7.32038
-7.48361
7.18117
0.0952041
3.62054
4.35694
1.8836
-2.39003
4.27362
-5.08656
7.33591
-8.62448
3.53792
4.09762
-6.66541
-4.52687
5.03162
4.00211
5.31522
8.90785
-10.3864
1.47855
-10.7105
12.0258
-1.31525
-16.4699
5.7594
-7.56208
2.54132
0.351242
2.6292
0.577793
2.50023
-3.07802
-2.22993
-2.15078
-2.40044
-3.44922
5.84966
1.11574
-3.49206
2.37632
-3.56243
4.67817
-0.148116
-3.34395
5.29776
-2.79753
5.649
-3.71054
1.93846
3.40541
5.74439
-2.33898
4.38036
-1.7452
1.89497
-4.23396
-1.55424
-2.96136
5.09433
-3.28303
3.6661
-0.325568
3.99166
-4.08639
0.87779
-0.762816
3.42188
3.68311
4.29361
-3.08376
2.93469
-4.67989
-1.29927
-4.10369
-0.907901
-0.274372
-3.75602
4.03039
6.02675
-6.30112
-5.21824
9.53315
-4.31491
7.71974
-5.38049
-2.33925
-4.2425
-4.41002
3.86069
1.90852
9.62826
0.238716
-5.61921
-4.90548
-4.01458
3.15574
2.14741
-1.83865
3.47975
2.10119
-0.490575
0.49527
1.01035
1.82915
-1.33388
0.264361
1.56479
-1.11672
1.86307
0.749117
-1.9133
0.104332
-1.29634
3.50911
1.07863
-2.01092
0.677045
1.0046
-3.50486
5.00624
-2.63976
-2.36648
6.01085
1.11029
-3.75005
4.28748
-3.87703
2.34081
-3.4874
-1.40924
-5.28628
-3.56341
-2.54762
4.92395
-3.30204
5.37985
1.2442
-5.1961
6.4403
-3.65148
1.68309
-3.09463
3.84374
-1.02669
-2.06794
2.86504
2.7831
-2.99744
0.00281725
-0.132401
2.37728
-2.50968
-0.570516
-2.58244
-4.57339
4.90367
-2.10588
4.55244
2.16774
-1.91583
6.46827
1.80999
-3.72582
-3.24879
-3.70949
-1.38344
3.15628
-0.59324
-4.2337
-5.42184
4.13975
0.214298
-6.91885
7.7328
-0.813949
-3.95107
-0.630037
4.75714
-5.98159
0.482494
-3.90723
3.82557
4.72505
4.93935
-11.3897
-0.204457
-6.2309
1.15503
-7.38593
5.50247
-3.59712
7.72145
-10.3698
6.94621
-9.25231
6.53325
-0.852678
6.24135
-4.07826
2.77167
-8.4702
-6.85612
5.41757
-2.72641
6.13639
-3.07933
9.21572
-5.73164
5.18578
4.02994
-0.968294
-4.14553
-5.20128
4.23299
-0.0155035
4.10313
4.97495
-2.86775
4.64878
2.2657
-4.66294
-2.13036
-6.49936
1.83642
-3.34709
-1.91787
3.75428
3.1671
3.75454
1.23925
-3.34405
7.14285
-8.14458
-1.78245
-3.28149
5.18112
-0.948131
3.33561
-6.6171
-1.87211
4.86433
-0.836183
-4.02815
0.816792
-4.37083
1.67667
-6.0475
5.18955
-5.61602
2.19429
-9.75637
-5.20409
-5.14097
-2.23749
-5.24612
-7.59753
5.36003
-1.83813
5.48225
-8.54642
7.71023
-3.47937
8.8394
-5.43969
-1.0368
5.84011
1.34106
10.1805
0.206617
-4.73348
-1.9284
3.93607
-2.00767
1.22734
-3.5494
0.386668
2.47504
3.53581
-6.63575
-0.0296644
-4.76315
-3.92985
7.93196
5.6033
11.6301
1.24365
9.10728
-1.17532
10.3509
4.1399
4.37529
-3.03271
4.51126
0.997679
4.5356
-0.897693
2.83615
1.73151
1.78106
0.768214
2.31309
1.37002
3.19088
0.112861
-2.03792
4.62615
-8.64072
-0.993058
-8.0553
1.13056
5.81889
-4.68833
3.04204
-0.894633
1.03438
0.0315247
-1.4939
1.46237
-2.77137
-1.98447
-0.419688
-1.65857
2.33562
1.85053
-1.91593
-0.855438
0.373262
-3.93667
3.11414
-3.11133
-0.32823
6.11207
-2.79633
0.286649
-1.11324
-2.29579
-2.83484
2.73051
6.17562
0.292647
3.11329
5.19632
3.10156
0.233801
3.89587
-5.65083
-3.59037
-5.85529
-0.352825
4.40432
1.72617
7.92593
5.7561
4.80797
-1.80913
-9.95371
6.54024
-2.02898
5.22499
-1.19684
-4.85066
5.00673
2.32918
-5.63087
0.0148508
-4.8358
-6.86478
-0.551922
8.26216
-9.62854
8.59174
5.76964
1.36145
-4.40987
-0.731105
4.23875
0.136541
10.4875
-1.17883
-6.70841
7.88723
-4.64007
3.64701
0.748231
2.73152
2.2106
1.31597
-5.39243
-10.0808
-1.99367
-1.51119
-4.36015
0.516091
-2.36662
6.26661
-2.6196
3.92736
5.26763
6.30201
-2.13601
-4.16511
6.45092
-2.52357
3.77844
)
;

boundaryField
{
    wall-4
    {
        type            calculated;
        value           uniform 0;
    }
    velocity-inlet-5
    {
        type            calculated;
        value           uniform -3.75095;
    }
    velocity-inlet-6
    {
        type            calculated;
        value           uniform -5.62643;
    }
    pressure-outlet-7
    {
        type            calculated;
        value           nonuniform List<scalar> 8(3.21948 7.74814 4.41233 9.7641 7.45098 5.15075 5.75578 9.01178);
    }
    wall-8
    {
        type            calculated;
        value           uniform 0;
    }
    frontAndBackPlanes
    {
        type            empty;
        value           nonuniform 0();
    }
}


// ************************************************************************* //
