/*--------------------------------*- C++ -*----------------------------------*\
| =========                 |                                                 |
| \\      /  F ield         | OpenFOAM: The Open Source CFD Toolbox           |
|  \\    /   O peration     | Version:  4.0                                   |
|   \\  /    A nd           | Web:      www.OpenFOAM.org                      |
|    \\/     M anipulation  |                                                 |
\*---------------------------------------------------------------------------*/
FoamFile
{
    version     2.0;
    format      ascii;
    class       volVectorField;
    location    "48";
    object      U;
}
// * * * * * * * * * * * * * * * * * * * * * * * * * * * * * * * * * * * * * //

dimensions      [0 1 -1 0 0 0 0];

internalField   nonuniform List<vector> 
918
(
(0.98509 -0.000551331 0)
(0.00479826 2.96625 0)
(0.0136084 0.857496 0)
(0.979828 0.00240768 0)
(-0.0114864 2.05871 1.62156e-20)
(-0.00704909 2.94891 -1.09452e-18)
(0.810283 1.16057 1.76418e-19)
(0.219696 0.11377 -6.3306e-21)
(0.999905 -0.000300214 0)
(0.0508546 0.817366 0)
(0.0147106 0.636222 0)
(0.732546 -0.0135875 0)
(0.0114706 2.93018 0)
(0.00317045 2.7948 0)
(-0.0210934 3.15177 3.37855e-19)
(-0.0258974 1.90306 -9.95981e-22)
(0.293572 0.0363671 4.16948e-19)
(0.203654 1.18179 1.26821e-19)
(0.961957 0.00387559 0)
(-0.0024611 0.554573 0)
(0.032175 0.141231 -3.00172e-19)
(1.00217 -0.00519919 0)
(1.00077 -0.0101512 0)
(0.975978 -0.0065331 0)
(0.578839 -0.0290986 0)
(0.0179576 2.63945 0)
(-0.0148375 2.91012 3.84954e-19)
(0.0144272 0.926401 0)
(-0.00381774 1.17702 0)
(0.0151495 0.909862 0)
(-0.00949053 2.61211 0)
(0.00143123 2.11695 -1.26268e-20)
(-0.0111764 1.88362 0)
(-0.0204627 2.98752 -3.94003e-23)
(-0.016982 3.0054 8.69457e-19)
(0.00201495 3.00016 0)
(0.870875 -0.00881547 0)
(0.438889 0.973794 8.06206e-20)
(0.784248 1.17804 -1.90284e-19)
(0.933647 1.0175 2.12403e-19)
(0.656757 1.27306 -4.0576e-20)
(0.660939 1.25665 2.36197e-19)
(0.258151 0.181614 6.17255e-21)
(0.232519 0.0886207 0)
(1.14081 0.574785 0)
(0.22925 0.171822 2.81667e-20)
(0.191539 0.112504 -2.92456e-20)
(0.919609 -0.00724589 0)
(1.00028 0.000157889 0)
(0.999916 0.000343524 0)
(1.00351 -0.00767172 0)
(1.00096 -0.000943586 0)
(1.00019 2.46998e-05 0)
(0.0619104 1.80575 -3.29423e-19)
(0.0244468 1.01402 0)
(0.0790901 0.886383 0)
(0.0108147 0.968736 0)
(0.0312487 0.749933 0)
(0.00992991 1.9963 0)
(0.00263441 0.863229 0)
(0.00859658 0.645554 0)
(0.00193802 0.849543 0)
(0.0111761 0.62426 0)
(0.839644 -0.0146907 0)
(0.845471 0.0290551 0)
(0.765893 -0.00465413 0)
(0.813411 0.0373017 0)
(0.703699 -0.0132287 0)
(0.015321 3.00067 3.97713e-19)
(0.0117072 3.00835 0)
(0.00652076 3.00254 0)
(0.0141258 2.9972 4.46833e-24)
(0.00835956 2.95854 -6.01144e-19)
(0.0151931 2.9819 0)
(0.0111989 2.90367 0)
(0.0254089 2.93051 8.81293e-25)
(0.00510216 2.82468 0)
(0.0309707 2.9162 0)
(-0.00474798 2.74522 0)
(0.302278 3.54276 0)
(-0.146219 3.61943 0)
(0.133942 3.24403 -3.11854e-19)
(-0.0100123 2.9842 0)
(-0.0204277 1.99342 0)
(-0.00752155 2.16349 9.82144e-22)
(-0.0182413 1.90717 -6.65019e-21)
(0.39685 0.139099 -1.44423e-19)
(0.305828 0.0281801 -1.39779e-19)
(0.371852 0.14843 -4.3396e-19)
(0.271287 0.045757 -2.85408e-19)
(0.191956 0.959492 0)
(0.216006 1.31598 -1.43609e-19)
(0.371154 1.26495 2.43316e-19)
(0.987345 0.00823808 0)
(0.941269 0.00544297 0)
(1.00031 0.00043102 0)
(1.00326 0.0094964 0)
(1.00287 0.00785146 -1.12837e-18)
(0.991771 0.00989042 8.6159e-19)
(-0.000281742 0.823629 0)
(0.000902243 0.567177 0)
(-0.0310086 0.977079 0)
(-0.0122593 0.840711 0)
(0.0086031 0.549161 0)
(0.0627665 0.147428 9.29747e-20)
(0.124078 0.124707 0)
(0.993364 -0.00824742 0)
(0.954489 -0.00615459 0)
(0.75966 0.0444447 0)
(0.696965 0.0570274 0)
(0.66458 -0.0240765 0)
(0.965546 -0.00429066 0)
(0.608779 0.0818939 0)
(0.442744 -0.000789259 6.24587e-19)
(-0.0368639 2.8642 2.84225e-19)
(0.0420641 2.90918 0)
(0.0539217 2.88529 0)
(-0.00379402 2.69906 0)
(-0.0138825 2.98503 3.63643e-19)
(-0.0181118 2.89498 0)
(-0.0158822 2.98801 -1.13107e-18)
(-0.0132295 2.92533 3.88538e-19)
(-0.00435753 1.34506 0)
(0.0148138 1.37507 0)
(-0.00643084 2.13345 1.13758e-22)
(-0.00440932 2.09221 0)
(-0.0263364 1.89164 0)
(0.938236 -0.00761407 0)
(0.857309 -0.00825887 0)
(0.862655 0.00559642 0)
(0.949264 -0.00782238 0)
(0.883768 -0.00738144 0)
(0.547654 1.16793 -1.0276e-19)
(0.59698 1.20647 0)
(0.406761 0.927493 1.49103e-20)
(0.346236 0.780784 0)
(0.898078 1.05568 -5.74478e-20)
(1.01024 0.867168 1.16844e-19)
(0.35495 1.35407 0)
(0.513687 1.33517 0)
(0.522856 1.28194 0)
(0.124523 0.212671 -1.26876e-19)
(0.29139 0.17675 0)
(0.258228 0.0799006 8.06515e-20)
(0.98726 0.921172 0)
(1.06546 0.780654 0)
(1.0865 0.722196 -9.18903e-20)
(1.11974 0.628526 0)
(1.16875 0.414368 2.39546e-20)
(0.957704 -0.00848615 0)
(0.96239 -0.0102417 0)
(0.902034 -0.00737788 0)
(0.984354 -0.00917842 0)
(0.974846 -0.00933187 0)
(0.937453 -0.00597739 0)
(1.00018 0.00214892 0)
(1.00086 0.00143172 0)
(0.999868 0.000910753 0)
(0.0282639 2.06676 1.81031e-19)
(0.0980439 1.75731 0)
(0.0145689 2.17554 2.83316e-19)
(0.041807 1.86077 -2.38158e-19)
(0.0951234 1.20157 -1.03569e-19)
(0.0421141 1.08399 0)
(0.119767 1.03031 0)
(0.00817682 0.924845 0)
(0.00957812 0.702138 0)
(-0.00207978 2.23074 -4.77302e-22)
(0.0182197 2.00003 0)
(-0.00142269 2.23344 -2.1583e-20)
(0.0111008 2.00369 3.81922e-20)
(0.0054291 0.898051 0)
(0.00398923 0.877379 0)
(0.00870593 0.668604 0)
(0.00497374 0.838365 0)
(0.00868905 0.608228 0)
(0.936294 0.00992888 0)
(0.846131 -0.0153033 0)
(0.926287 -0.000584515 0)
(0.840245 -0.0122316 0)
(0.810871 -1.58069e-05 0)
(0.90027 0.0204314 0)
(0.876353 0.0247664 0)
(0.787729 -0.00197432 0)
(0.00425954 3.06451 -3.50938e-21)
(0.0169025 3.05751 0)
(0.0153583 2.96898 0)
(0.00901151 2.87622 0)
(0.960425 3.97791 0)
(1.30496 3.24166 4.48985e-19)
(0.0688872 3.0757 0)
(-0.0231776 2.90715 0)
(0.000455438 1.3902 0)
(-0.0207804 1.69763 0)
(-0.00739635 1.52784 0)
(-0.0280513 2.56667 -1.62797e-21)
(-0.00908595 2.25243 0)
(-0.0171096 2.40294 0)
(0.00191819 1.93245 5.10323e-22)
(-0.00287998 2.23343 5.15629e-21)
(-0.00531431 2.1966 6.70294e-21)
(-0.00873626 1.91813 0)
(0.435975 0.123787 2.19149e-19)
(0.346875 0.0185079 -2.15235e-19)
(0.271862 1.57838 0)
(0.250367 0.745695 -1.27118e-19)
(0.17766 1.66988 -4.18832e-19)
(0.204425 1.21277 4.19782e-19)
(0.901606 0.00583002 0)
(0.967301 0.0107746 0)
(0.974381 0.0106895 0)
(0.923133 0.00590297 0)
(0.000772838 0.833753 0)
(0.00591175 0.823854 0)
(0.0112181 0.585309 0)
(0.197689 0.161229 2.60275e-19)
(0.166303 0.146095 -3.07828e-19)
(0.161642 0.1175 0)
(1.09054 0.0851583 1.17391e-20)
(1.06966 0.0384349 0)
(1.00566 0.0396918 0)
(0.90214 -0.0046521 0)
(0.478269 0.108711 0)
(0.52902 0.0903473 -9.99562e-19)
(0.390574 0.011658 3.74342e-19)
(0.00910868 2.98177 3.03746e-19)
(-0.0323202 2.86736 1.99094e-20)
(0.00173794 3.04965 -7.42409e-21)
(0.0209084 3.04313 2.73922e-19)
(-0.0153487 2.99632 1.2753e-20)
(-0.0127377 2.9495 -5.14252e-23)
(-0.0175417 3.01149 -2.34498e-19)
(0.0142187 3.023 1.68796e-19)
(0.00672385 3.03672 -2.73708e-19)
(0.933022 -0.00197797 0)
(0.939031 -0.0030933 0)
(0.844249 -0.00778296 0)
(0.95634 0.0116245 0)
(0.942616 0.0129945 0)
(0.881119 0.00538824 0)
(0.917373 0.0163878 0)
(0.92603 0.0148626 0)
(0.838142 0.00255243 0)
(0.760728 1.43268 2.44419e-20)
(0.803214 1.52388 0)
(0.214727 0.352762 3.11951e-20)
(0.256388 0.726666 2.47666e-19)
(0.295036 0.775369 -1.48764e-19)
(0.303566 0.55449 2.89134e-19)
(0.34071 0.826002 6.60728e-19)
(0.140472 0.242757 1.50674e-19)
(0.343096 0.162774 3.02288e-19)
(0.31996 0.172503 7.89231e-20)
(0.267052 0.0583073 1.50496e-19)
(1.15999 0.470185 1.5374e-20)
(1.17299 0.268572 1.34374e-20)
(0.00896452 2.22538 1.09797e-19)
(0.0391146 1.9292 0)
(0.966625 0.0307588 0)
(0.939813 0.0128793 0)
(0.867481 -0.0174885 0)
(0.0112186 3.07406 0)
(0.0204848 2.944 4.97933e-19)
(0.0171538 2.95615 0)
(0.00680164 2.8505 -4.96245e-19)
(0.00589413 3.09162 1.17666e-19)
(0.00577589 3.08207 0)
(0.888131 1.82675 -6.85757e-20)
(1.27012 2.37558 1.17788e-19)
(0.868218 1.93018 -4.75767e-19)
(0.0201025 2.98132 -2.63394e-19)
(0.0358707 3.00142 0)
(-0.0323661 2.88006 0)
(-0.00449937 2.2123 -6.19141e-21)
(-0.00293434 2.23642 -1.2415e-20)
(0.00464842 1.96751 -3.68917e-21)
(0.279143 1.39452 4.15058e-19)
(0.20497 0.543308 -2.8258e-19)
(0.0534883 1.99502 3.14381e-19)
(0.15337 1.88827 -3.78265e-19)
(0.149353 1.48778 4.08073e-20)
(0.0043736 3.11773 -7.03623e-19)
(0.0145962 3.11812 7.9218e-19)
(-0.00980173 2.98037 3.35004e-19)
(-0.00396318 2.97752 -3.17589e-19)
(-0.0218225 2.88172 -3.41377e-19)
(0.00760341 3.09813 -8.75582e-19)
(0.000729984 3.10645 8.83155e-19)
(0.296492 0.73762 0)
(0.264185 0.736123 -5.15477e-19)
(0.11258 0.251543 2.29629e-19)
(0.357416 0.947884 4.49349e-19)
(0.187011 0.282816 -6.93204e-19)
(1.17134 0.17654 3.02135e-20)
(1.17429 0.31768 0)
(1.15747 0.127018 -6.8601e-21)
(-5.15151e-05 2.24234 -7.44936e-22)
(0.00272882 2.23617 0)
(0.022947 1.96747 0)
(0.352035 1.29958 -1.48374e-19)
(0.380364 1.142 -3.23607e-19)
(0.190772 0.375612 5.7521e-19)
(1.00554 -0.011173 0)
(1.00751 -0.0074323 2.09529e-19)
(-0.00189449 1.32198 0)
(-0.0204188 1.30291 0)
(1.00198 0.0034546 8.00753e-22)
(1.00381 0.010051 4.23962e-19)
(-0.0144092 2.54991 2.1426e-21)
(-0.0218778 2.59225 0)
(0.0331137 3.17301 1.85561e-19)
(0.385777 3.47689 0)
(1.1773 0.644512 -2.75447e-20)
(1.0132 0.0136154 -7.62241e-22)
(1.02126 -0.0106845 0)
(1.00176 0.000120047 2.72081e-23)
(0.103925 1.35441 0)
(0.151756 2.57143 0)
(0.0206523 1.29379 0)
(0.00150261 2.62237 2.17981e-20)
(-0.0200115 2.5806 9.60186e-21)
(1.00109 0.0295307 1.01705e-21)
(1.06248 0.00365656 0)
(1.09405 0.0227106 0)
(-0.0199912 1.73916 0)
(-0.0182094 2.58806 0)
(0.00696184 1.29569 0)
(0.307197 1.46711 -6.7261e-20)
(1.01125 -0.00987704 0)
(1.0094 -0.0153638 0)
(1.00241 0.000644566 2.66126e-19)
(1.00538 -0.00478024 -3.15926e-19)
(1.0012 -0.00104834 0)
(-0.00359815 1.46021 0)
(-0.0027738 1.36343 0)
(0.00440594 1.41296 0)
(0.00572104 1.28356 0)
(-0.00401676 1.2612 0)
(0.00342319 1.24413 0)
(1.0344 -0.00687794 0)
(1.02061 0.0161078 -3.48548e-22)
(0.816914 1.25214 9.47104e-20)
(1.00221 0.000405633 -2.65405e-19)
(1.00402 0.00535066 3.15696e-19)
(1.00118 0.00212994 0)
(1.01342 0.0105827 2.63321e-19)
(1.00855 0.00868756 -3.19001e-19)
(1.00929 0.0156818 0)
(-0.0236906 2.61802 0)
(-0.0240673 2.59896 -3.50146e-21)
(-0.0219966 2.61269 2.56361e-21)
(1.23102 0.252963 2.4974e-19)
(1.15691 0.078698 0)
(0.0423132 3.07392 -4.03976e-19)
(0.0645406 2.85397 -2.88222e-20)
(0.14037 3.19709 6.13886e-19)
(0.138223 3.22731 -7.80643e-20)
(0.132712 3.23373 0)
(0.0194785 3.13589 1.07289e-19)
(0.0741047 3.16167 3.93973e-19)
(0.0681682 3.18498 -2.04078e-19)
(0.0228865 3.12895 0)
(0.626297 0.277169 0)
(0.548796 0.321259 0)
(1.13073 0.674195 6.4666e-20)
(1.15319 0.799815 -6.18963e-20)
(1.19527 0.563116 0)
(1.23738 0.503446 0)
(1.01631 0.0136871 -4.97223e-19)
(1.01512 0.0148272 6.23205e-19)
(1.02521 -0.0100865 0)
(1.0232 -0.0123773 0)
(1.0064 0.00261094 0)
(1.01013 0.00362343 0)
(1.00459 0.00187603 0)
(1.00983 0.00609221 0)
(1.00803 0.006297 0)
(1.00443 0.0044443 0)
(0.092061 1.3507 0)
(0.0883859 1.32035 0)
(0.12204 1.38597 0)
(0.144576 1.40017 0)
(0.146301 2.59536 0)
(0.186971 2.66028 -1.87274e-19)
(0.0990688 2.65202 0)
(0.0890774 2.65226 8.95634e-20)
(0.0413461 2.68069 -7.1162e-20)
(0.018951 1.30705 0)
(0.0205186 1.2418 0)
(0.0190049 1.31983 0)
(0.0307029 1.26154 0)
(0.00197986 1.97808 -9.2322e-21)
(-0.0188842 2.60929 1.52114e-21)
(-0.00829017 2.66337 1.79016e-20)
(-0.0168974 2.68505 0)
(-0.0222719 2.61549 -2.13318e-20)
(-0.0228546 2.61026 -6.49404e-21)
(0.0129316 1.97774 8.4414e-21)
(-0.00562282 2.39428 -1.96884e-21)
(-0.0126146 2.41695 -2.12801e-20)
(1.01121 0.0373221 5.00484e-19)
(1.0064 0.017067 -6.22282e-19)
(1.00222 0.0440183 -5.04443e-19)
(0.980348 0.0233693 6.41011e-19)
(1.06358 0.0079245 0)
(1.04877 -0.00888356 0)
(1.09295 0.0316793 0)
(1.07323 0.0119637 0)
(1.07125 0.000922165 0)
(1.134 0.0840286 0)
(1.10865 0.0430679 0)
(1.11447 0.028001 0)
(-0.0184557 2.44126 -1.69787e-22)
(-0.00385386 2.01446 0)
(-0.012143 2.22269 0)
(-0.0198189 2.60944 -1.20021e-21)
(-0.0162076 2.6183 -1.06187e-22)
(0.00833028 1.55901 -4.19661e-21)
(-0.000624838 1.49268 4.22562e-21)
(-0.00356756 1.38002 0)
(-0.00572843 1.38741 0)
(-0.00496186 1.38241 0)
(0.00830775 1.29811 0)
(0.0172723 1.22983 0)
(0.378246 1.48836 1.10016e-19)
(0.432446 1.48601 5.74598e-20)
(0.595075 2.4405 -1.01487e-19)
(0.402891 2.53803 2.94202e-19)
(0.34586 2.06547 3.08056e-20)
(1.02113 -0.0081277 0)
(1.01546 -0.00987302 0)
(1.01498 -0.0160648 0)
(1.00736 -0.00122427 0)
(1.00494 -0.00104564 0)
(1.00772 -0.0046268 0)
(1.00918 -0.00373405 0)
(1.01409 -0.00446449 0)
(1.0213 0.0163452 4.88475e-19)
(1.0181 0.0161315 -6.20282e-19)
(1.0216 0.0182735 -4.89118e-19)
(1.01944 0.0171502 6.13401e-19)
(0.777857 1.30482 0)
(0.717199 1.35537 9.33618e-20)
(0.88509 1.21573 3.46632e-20)
(0.948748 1.14828 -4.61086e-20)
(1.15801 2.60094 1.2323e-19)
(0.794933 0.115454 2.44106e-19)
(1.15346 0.111046 0)
(1.20961 0.193946 -2.00042e-19)
(1.19864 0.14548 -8.48773e-21)
(1.00272 0.151176 0)
(0.155162 2.9612 2.09916e-19)
(0.11027 2.8683 -5.40512e-19)
(0.0252572 2.38212 3.34623e-19)
(0.0959862 -0.0559977 -1.40613e-19)
(0.334639 3.42035 -8.7446e-20)
(0.197083 3.31968 0)
(0.227315 3.35254 1.13802e-19)
(0.253851 3.04121 -6.97745e-19)
(0.357534 3.20135 0)
(0.00562391 3.12072 2.05057e-20)
(0.0161844 3.12906 -2.44684e-19)
(0.0144565 3.12489 3.58847e-19)
(0.0341132 3.14002 0)
(0.032548 3.14974 0)
(1.19134 2.63939 0)
(0.551288 0.825484 -2.14465e-19)
(1.07622 0.970962 3.87209e-21)
(0.981832 1.07274 0)
(0.835708 0.952938 -4.82571e-20)
(1.06984 0.882779 1.04899e-20)
(0.3393 0.371434 -3.76065e-19)
(0.672472 0.313497 -7.62122e-21)
(0.621545 0.219517 1.72071e-19)
(0.566265 0.368796 1.26647e-20)
(0.476799 0.315929 -5.10942e-19)
(0.64191 0.32851 0)
(0.708667 0.412702 2.9038e-19)
(0.71398 0.411297 0)
(0.600512 0.359248 0)
(0.558949 0.263267 0)
(0.810033 0.60817 1.72934e-19)
(1.22253 0.283417 -2.15179e-19)
(1.22998 0.415918 0)
(1.25106 0.350704 0)
(0.728157 0.192104 2.55477e-19)
(0.858427 0.542624 -1.58922e-19)
(0.756377 0.512429 2.82053e-19)
(0.955492 0.430091 -3.0835e-19)
(1.01988 0.0148889 3.3251e-19)
(1.01805 0.0144568 -3.34735e-19)
(1.01589 0.0161841 0)
(1.036 -0.0061665 0)
(1.02967 -0.00866728 -3.13523e-19)
(1.02753 -0.01265 3.11042e-19)
(1.02497 0.0100286 0)
(1.02371 0.0135395 0)
(1.01119 0.00401645 0)
(1.01428 0.00895938 0)
(1.01472 0.00413038 0)
(1.01385 0.00301418 0)
(0.0607995 1.3336 0)
(0.0640015 1.28764 0)
(0.140685 1.35552 -7.14824e-21)
(0.277049 1.46527 3.48685e-20)
(0.168505 1.43477 7.48972e-20)
(0.211155 1.44649 -1.21797e-19)
(0.163278 1.37909 0)
(0.129814 1.59427 -3.17001e-20)
(0.108958 1.56344 0)
(0.347805 2.01165 -4.45221e-20)
(0.34787 2.3593 2.52324e-19)
(0.191225 1.44828 2.77189e-20)
(0.249423 1.37277 4.9971e-21)
(0.197346 1.36171 -4.01813e-21)
(0.259638 1.32111 -5.03285e-20)
(0.228955 1.57764 0)
(0.260491 1.6074 5.31711e-20)
(0.02832 2.26376 -1.60788e-20)
(0.0437806 2.66956 0)
(0.0617489 2.40221 6.73882e-20)
(0.057716 2.42483 0)
(0.0702702 2.66387 -9.96805e-20)
(0.0523128 2.69795 0)
(0.0283576 1.41029 4.99651e-22)
(0.0331105 1.4616 0)
(0.0289776 1.38058 0)
(0.0250309 1.38303 -5.62486e-22)
(0.000624331 2.65086 -8.56273e-21)
(0.0300091 2.69631 8.08769e-20)
(0.0118233 2.72001 6.15418e-22)
(0.00488157 1.82661 7.83779e-21)
(-0.00433009 1.67602 3.29778e-21)
(0.0135303 1.28677 0)
(0.0192253 1.21314 0)
(0.0485226 1.57211 2.57438e-21)
(0.0278359 1.44563 6.9119e-22)
(0.0371807 1.51071 -8.3351e-22)
(0.0382881 1.59629 0)
(-0.0225583 2.27451 3.54642e-20)
(-0.0298387 2.55614 -1.63016e-20)
(-0.00627888 2.44773 -3.39211e-22)
(-0.00188468 1.84094 -9.46321e-21)
(-0.0232171 2.49756 -3.32094e-21)
(-0.0180109 2.44223 1.38285e-20)
(1.01949 0.0212321 -3.30103e-19)
(1.0156 0.026953 3.32414e-19)
(1.01453 0.0163827 0)
(1.01205 0.071409 4.6279e-19)
(0.989708 0.0610142 -5.20762e-19)
(0.946085 0.041813 5.84598e-19)
(1.01364 0.106306 -6.17384e-20)
(1.0422 -0.00593507 0)
(1.05058 -0.001674 3.00289e-19)
(1.03866 -0.010421 -2.9961e-19)
(1.07062 0.0418799 -1.77216e-20)
(1.0641 0.0221181 1.52837e-19)
(1.06378 0.0532009 0)
(1.05347 0.0479034 -5.48367e-20)
(1.03265 0.0411204 0)
(1.02613 0.0377377 0)
(1.02756 0.0136086 0)
(1.02399 0.0161737 0)
(1.03947 0.0325219 1.12744e-19)
(1.03861 0.0258725 -2.48901e-19)
(1.05003 0.0320773 -1.20019e-19)
(1.04846 0.0322793 -1.32033e-19)
(1.06909 0.0618458 2.57671e-19)
(1.09275 0.0514223 0)
(1.10356 0.0927395 0)
(-0.0182251 2.27155 9.54556e-21)
(-0.0100594 2.01433 -5.79615e-22)
(-0.0116054 2.01585 0)
(-0.0203539 2.4506 -9.92565e-21)
(-0.0140915 2.4083 7.33104e-22)
(-0.028 2.48163 8.6984e-22)
(-0.0188576 2.62436 5.16917e-21)
(-0.0204961 2.56499 -7.31228e-22)
(-0.0163572 2.51431 2.2108e-21)
(-0.0130192 2.62031 -5.59004e-22)
(-0.0194371 2.62146 1.47234e-21)
(0.00160523 1.47547 -4.2902e-22)
(0.0179584 1.60863 -2.90209e-21)
(0.356459 1.43229 -4.48965e-20)
(0.357419 1.37316 2.01887e-20)
(0.655404 1.40957 -9.0276e-20)
(0.523484 1.47734 -5.5736e-20)
(0.589685 1.44286 0)
(0.583386 2.41873 9.52683e-20)
(0.655823 2.41721 1.45398e-19)
(0.403662 2.51521 3.74008e-20)
(0.405832 2.54764 -2.55611e-19)
(0.519801 2.4949 2.52505e-19)
(0.543871 2.45699 0)
(0.479954 2.51276 -2.38191e-19)
(0.236663 2.58749 4.94485e-19)
(0.34693 2.56795 -3.44875e-20)
(0.280471 2.65096 -6.74939e-19)
(0.934231 2.37698 3.24292e-19)
(0.828123 2.38619 0)
(1.01093 0.000263358 1.07222e-20)
(1.01526 -0.00545121 -8.8823e-21)
(1.01757 -0.00343573 -1.60013e-19)
(1.01487 -0.000881121 1.61765e-19)
(1.01222 0.00108218 0)
(0.64174 1.27922 0)
(0.65712 1.17606 0)
(0.7647 1.08127 0)
(0.656519 1.1335 0)
(1.1863 2.61078 2.70692e-20)
(1.07364 2.3607 0)
(0.851897 2.17204 1.65005e-21)
(0.822244 2.44198 0)
(0.922874 2.53441 -1.7338e-19)
(0.960425 2.49422 1.1262e-19)
(0.813729 0.178015 0)
(0.772851 0.149328 6.59479e-20)
(0.918793 0.145751 3.8838e-19)
(0.830732 0.148256 -1.44147e-19)
(0.797895 0.0853931 -4.48004e-19)
(1.07449 0.233587 -3.83145e-19)
(0.996752 0.29963 -6.54968e-21)
(0.92778 0.288053 3.55753e-19)
(1.00651 0.224848 2.98749e-19)
(0.952531 0.190699 -5.14822e-19)
(0.920073 0.191814 6.41349e-20)
(0.954552 0.250069 -1.36783e-19)
(0.934036 0.216965 0)
(0.992882 0.184706 2.53787e-19)
(1.04722 0.187613 0)
(1.04286 0.217915 0)
(1.10094 0.11898 1.20766e-19)
(1.07604 0.176737 -6.09973e-21)
(1.07171 0.233489 -6.47678e-20)
(1.10199 0.203008 0)
(1.0219 0.0456661 2.56192e-19)
(1.04222 0.0583333 3.16584e-19)
(1.0343 0.0442107 -2.51577e-19)
(1.04279 0.0652431 -2.12717e-19)
(1.01726 0.0729691 -3.26394e-19)
(0.988945 0.156792 0)
(1.00195 0.105087 0)
(0.967483 0.0696084 -2.07828e-19)
(0.911348 0.0905006 8.11361e-20)
(1.0388 0.101886 2.94745e-19)
(1.06943 0.118601 -3.46533e-19)
(1.07734 0.150581 3.06294e-19)
(1.02801 0.145961 0)
(1.07299 0.108413 0)
(1.05569 0.0868865 -1.41591e-19)
(1.04504 0.0950931 -2.40897e-19)
(0.577423 1.07558 6.0417e-20)
(0.622797 1.38635 -2.46106e-20)
(1.16028 2.73522 -9.81011e-20)
(1.2375 3.07162 -1.0761e-21)
(1.24994 2.7081 -5.92964e-20)
(1.28003 2.70582 -3.26808e-20)
(1.16669 2.34997 8.11749e-21)
(1.22597 2.9656 -5.61068e-20)
(1.24772 2.93454 1.22962e-19)
(1.24325 3.22587 -7.94964e-20)
(1.36512 2.96209 9.12645e-20)
(1.30211 2.88642 0)
(0.559342 0.830241 -2.05299e-20)
(0.106779 1.23481 2.50725e-19)
(0.562521 0.416449 2.46809e-19)
(0.371856 0.154475 2.6573e-19)
(0.506683 0.364082 2.89733e-19)
(0.552484 0.449673 -4.78326e-19)
(0.546174 0.464763 3.92058e-19)
(0.485147 0.372497 -1.47406e-19)
(0.390105 0.299286 3.31221e-19)
(0.732665 0.2594 -1.46266e-19)
(0.69246 0.27992 0)
(0.661982 0.200592 3.21476e-21)
(0.738929 0.507991 1.52411e-19)
(0.714189 0.468658 -5.57718e-19)
(0.610964 0.459781 4.87542e-21)
(0.622817 0.446062 0)
(0.67637 0.722564 1.66864e-19)
(0.854182 0.777268 1.61453e-19)
(0.768824 0.861042 -1.88242e-19)
(0.892054 0.805787 -6.47069e-20)
(0.916392 0.838541 -1.66361e-20)
(0.922716 0.839727 1.70897e-20)
(0.860924 0.640798 -2.87615e-19)
(0.935825 0.70712 6.02977e-20)
(0.989639 0.715171 0)
(0.971638 0.685064 -8.5175e-20)
(1.02607 0.323632 8.90306e-20)
(1.12456 0.293777 1.26133e-19)
(1.06159 0.270174 1.53581e-19)
(1.01591 0.366415 -1.80424e-19)
(1.06046 0.427656 0)
(1.10574 0.411433 0)
(0.921267 0.359848 2.56096e-21)
(0.844071 0.298437 0)
(0.885199 0.295744 1.66741e-19)
(0.91561 0.295402 -3.68857e-21)
(0.946499 0.43114 8.59611e-19)
(0.906786 0.490897 2.24321e-19)
(0.907892 0.455609 -2.38785e-19)
(0.826647 0.440738 2.56155e-19)
(0.811634 0.437643 1.54312e-19)
(0.777387 0.417111 -1.50255e-19)
(1.02751 -0.000219441 2.64828e-19)
(1.01992 4.08794e-05 0)
(1.01855 0.000884865 1.74941e-19)
(1.02118 -0.00203032 -3.94363e-19)
(1.02213 0.00454971 1.92029e-19)
(1.02041 0.0113227 -4.04086e-19)
(1.02142 0.0106254 0)
(1.02097 0.0106203 -8.35055e-20)
(1.01588 0.00784632 2.09157e-19)
(1.0168 0.0103857 -1.05816e-19)
(1.01748 0.00967228 7.79083e-20)
(0.0270072 1.31257 0)
(0.0333868 1.35648 0)
(0.0419233 1.31271 0)
(0.0424977 1.2695 0)
(0.0651492 1.37741 -6.04404e-22)
(0.0744307 1.34596 3.66016e-21)
(0.11565 1.50746 -1.13753e-20)
(0.0881795 1.35833 4.29381e-21)
(0.0324734 1.45048 -9.928e-21)
(0.0360139 1.44298 7.67007e-21)
(0.0592168 1.36084 -1.67515e-21)
(0.0536767 1.3621 2.97889e-21)
(0.0453933 1.33993 3.26137e-22)
(0.0388559 1.36261 -7.07841e-22)
(0.105923 2.37205 -7.26463e-20)
(0.0904653 2.42153 0)
(0.165756 2.06394 4.70801e-20)
(0.110683 1.70542 1.83771e-20)
(0.234777 2.05292 -3.79663e-20)
(0.203994 2.43913 0)
(0.268159 2.39271 -2.48265e-19)
(0.305143 2.39096 1.75485e-19)
(0.220695 2.00637 -1.10764e-19)
(0.149062 2.16702 7.49395e-20)
(0.150894 2.2818 0)
(0.0134322 1.87747 -1.25942e-20)
(-0.00113181 2.39558 -3.1852e-20)
(0.00436562 2.14986 0)
(0.00991406 2.4579 -5.51525e-21)
(0.0247305 2.30319 1.09906e-20)
(0.01724 1.39194 -6.21841e-22)
(0.0178546 1.37818 1.12957e-20)
(0.0182339 1.38275 -4.89645e-21)
(0.0220154 1.38321 -1.90785e-21)
(0.0273667 1.41456 0)
(0.0149583 1.36333 0)
(0.0108785 1.28405 -5.31224e-21)
(0.0148857 1.3549 1.25252e-21)
(0.016526 1.35524 0)
(0.0127566 1.27553 -3.54915e-21)
(0.0210833 1.20913 7.94537e-21)
(1.03988 0.0107787 0)
(1.04561 0.00737665 -2.79701e-20)
(1.0385 0.0213785 -2.00629e-19)
(1.04787 0.0200172 0)
(1.05147 0.0198608 0)
(1.03646 0.0113864 -2.82517e-21)
(1.03132 0.0109033 3.23321e-19)
(1.03155 0.0164827 3.9554e-19)
(1.02556 0.0204185 0)
(1.02298 0.0207956 0)
(1.03483 0.0256749 2.01015e-19)
(1.02607 0.0264889 0)
(1.02441 0.0262295 0)
(-0.0177852 2.01602 0)
(0.019364 1.64691 -3.13713e-21)
(0.0050353 1.75561 -1.49508e-20)
(0.0101547 1.36656 0)
(-0.00568479 1.54149 -1.80043e-21)
(0.00555699 1.44559 1.00267e-21)
(0.00607493 1.37619 0)
(0.381351 1.67227 0)
(0.364277 1.29573 -3.9279e-20)
(0.308455 1.34222 0)
(0.418018 1.29516 1.44521e-20)
(0.467015 1.45818 0)
(0.447296 1.40433 5.19944e-21)
(1.03156 2.68143 -6.88841e-21)
(0.959381 2.41077 -3.96351e-19)
(0.909608 2.19467 4.52537e-19)
(0.841377 2.37827 1.11936e-19)
(0.841241 2.49626 0)
(0.91331 2.48936 0)
(0.916506 2.37211 0)
(0.896234 2.35949 -4.09968e-19)
(0.68521 2.45813 -1.69895e-19)
(0.796057 2.45385 -4.12536e-20)
(0.808555 2.42351 3.265e-20)
(0.687074 2.3931 0)
(0.793079 2.39173 0)
(0.748243 2.40222 -1.56643e-19)
(0.765211 2.49142 0)
(0.627051 1.10514 0)
(0.486674 0.912266 -2.08135e-19)
(0.573914 0.941246 -1.34573e-20)
(0.52874 1.04784 0)
(0.531219 0.995629 3.1497e-19)
(0.791399 0.885948 -5.44159e-20)
(0.797299 1.01028 0)
(0.769934 0.9606 8.0645e-20)
(0.653275 1.04152 0)
(0.660544 0.944218 0)
(1.16701 2.75129 -1.03573e-19)
(1.14373 2.81657 -4.7732e-20)
(0.938485 2.32848 5.55326e-20)
(0.89935 2.30854 -3.89583e-20)
(1.13024 2.72271 0)
(1.0828 2.69102 4.90898e-20)
(1.08931 2.47654 -1.37725e-19)
(0.981144 2.23381 -1.40297e-20)
(0.496341 1.35 0)
(0.508284 1.07124 -5.29577e-20)
(0.571588 1.15359 0)
(0.861557 0.236427 0)
(0.781924 0.192962 0)
(0.715822 0.153721 0)
(0.855425 0.236277 -2.62197e-19)
(0.75282 0.228085 1.53638e-19)
(0.927433 0.0765755 -1.68631e-19)
(0.943239 0.123685 0)
(0.92184 0.136639 7.21589e-20)
(0.859349 0.112279 2.90633e-19)
(0.827854 0.0701381 -1.82331e-19)
(1.17253 3.36048 -3.07625e-19)
(1.22434 3.28341 0)
(1.13765 3.37867 -6.04306e-19)
(0.636625 3.53712 5.28319e-19)
(0.848182 3.10514 2.11846e-20)
(0.515994 0.833091 2.51834e-19)
(0.419053 0.828909 0)
(0.315526 0.46506 -6.18688e-20)
(0.461512 0.66528 3.51114e-19)
(0.555758 0.429103 -8.45545e-20)
(0.522773 0.493216 9.6522e-20)
(0.661291 0.515835 2.09047e-19)
(0.697416 0.538332 0)
(0.656207 0.589422 0)
(0.611786 0.530429 0)
(0.987984 0.600866 4.17262e-20)
(0.911159 0.538893 -2.16583e-19)
(0.934262 0.568928 1.67766e-19)
(0.965294 0.51255 -1.68398e-19)
(1.08052 0.485852 0)
(1.0718 0.567247 -4.23286e-20)
(0.850283 0.396994 -3.50196e-19)
(0.854369 0.386001 -4.25141e-19)
(0.794667 0.379703 2.71644e-19)
(0.797361 0.357141 -2.7705e-19)
(0.845918 0.319942 -2.17325e-19)
(0.793508 0.318795 2.67346e-19)
(1.02668 0.00581491 -2.05214e-19)
(1.02632 0.00616768 4.24971e-19)
(1.0295 -0.000443047 2.5667e-19)
(1.0333 0.000778931 -3.10333e-19)
(1.0331 0.00780559 0)
(1.02996 0.00871083 -5.0836e-19)
(0.0602125 1.63667 1.0364e-20)
(0.0437204 1.57183 0)
(0.0852668 1.68304 7.38161e-20)
(0.0933124 1.66509 -6.5768e-20)
(0.0889491 1.521 2.12455e-20)
(0.0864055 1.51123 0)
(0.0174422 1.67211 0)
(-0.00183346 1.47551 -8.54543e-22)
(0.00505637 1.42152 7.67678e-22)
(-0.000224445 1.53791 3.16738e-21)
(0.00847135 1.87504 -1.59803e-21)
(-0.0072028 1.92732 2.6914e-21)
(0.49786 1.37028 -1.12587e-19)
(0.491808 1.37781 1.21409e-19)
(0.446169 1.29299 -1.669e-20)
(0.435231 1.29053 3.31047e-21)
(0.628921 1.30121 0)
(0.54513 1.3893 3.85626e-20)
(0.561831 1.39932 -3.74269e-20)
(0.457683 1.27995 1.62341e-20)
(0.514481 1.23673 0)
(0.560433 1.19894 0)
(0.647157 2.41634 2.5497e-19)
(0.670052 2.46033 5.24289e-19)
(0.709028 2.47392 -3.59679e-19)
(0.607043 2.45442 -8.53359e-20)
(0.562618 2.54066 1.21468e-19)
(0.522754 2.5225 -3.14063e-19)
(0.975184 2.37732 -2.51872e-19)
(1.01093 2.38738 0)
(0.9195 2.17433 -2.92571e-19)
(1.05331 2.6716 0)
(1.05642 2.65843 0)
(0.600987 2.24663 -7.21046e-20)
(1.02877 3.15404 4.61416e-20)
(0.895786 3.01351 1.14124e-20)
(0.281105 0.885761 0)
(0.315331 0.721759 -1.32475e-19)
(0.459052 0.691197 -1.32824e-19)
(0.395667 1.9737 0)
(0.477729 2.78374 -1.4998e-20)
(0.432036 2.56709 0)
(0.69401 0.660701 -3.51694e-19)
(0.780453 0.680499 4.70267e-19)
(0.80833 0.615678 -4.61106e-19)
(0.681643 0.62577 -4.53512e-20)
(0.731658 0.584085 -1.85415e-19)
(1.01453 2.75876 -3.48492e-20)
(1.04833 2.83033 -4.94829e-20)
(0.652571 2.12638 2.97516e-19)
(0.581335 1.70501 -2.05975e-19)
(0.711068 1.89993 -1.74531e-19)
(0.997177 2.46372 -4.57765e-20)
(0.998182 2.45082 1.0709e-19)
(0.664787 1.86473 9.75426e-21)
(0.460024 1.3279 6.2594e-20)
)
;

boundaryField
{
    wall-4
    {
        type            noSlip;
    }
    velocity-inlet-5
    {
        type            fixedValue;
        value           uniform (1 0 0);
    }
    velocity-inlet-6
    {
        type            fixedValue;
        value           uniform (0 3 0);
    }
    pressure-outlet-7
    {
        type            zeroGradient;
    }
    wall-8
    {
        type            noSlip;
    }
    frontAndBackPlanes
    {
        type            empty;
    }
}


// ************************************************************************* //
