/*--------------------------------*- C++ -*----------------------------------*\
| =========                 |                                                 |
| \\      /  F ield         | OpenFOAM: The Open Source CFD Toolbox           |
|  \\    /   O peration     | Version:  4.0                                   |
|   \\  /    A nd           | Web:      www.OpenFOAM.org                      |
|    \\/     M anipulation  |                                                 |
\*---------------------------------------------------------------------------*/
FoamFile
{
    version     2.0;
    format      ascii;
    class       volScalarField;
    location    "22";
    object      p;
}
// * * * * * * * * * * * * * * * * * * * * * * * * * * * * * * * * * * * * * //

dimensions      [0 2 -2 0 0 0 0];

internalField   nonuniform List<scalar> 
918
(
0.227946
0.908238
0.0107146
0.227156
-0.00303662
0.875354
-0.834027
0.403035
0.208055
-0.44646
-0.233809
0.198452
0.735798
0.502743
-1.46312
-0.0219737
0.359842
-0.71545
0.206844
-0.00488005
0.474663
0.21469
0.217712
0.208284
0.268639
0.491888
0.616386
0.00401423
-4.2699e-05
-0.00307174
0.000795836
-0.0147271
-0.0141087
0.758977
0.810091
0.832758
0.176748
0.00126029
-0.685374
-0.760206
-0.747263
-0.883651
0.393414
0.3981
-0.490251
0.404792
0.41987
0.195484
0.207345
0.20822
0.209476
0.208369
0.209778
0.154825
-0.446098
-0.477735
-0.440638
-0.446265
-0.190396
-0.289414
-0.339428
-0.194791
-0.151638
0.132802
0.195471
0.192741
0.20285
0.212623
0.847788
0.819671
0.845819
0.759573
0.776067
0.713736
0.686305
0.522855
0.544386
0.488903
0.478919
-1.90723
-2.88165
-0.860546
-0.601195
0.000385703
-0.0298784
-0.0343101
0.346802
0.352605
0.357371
0.372311
0.762391
-0.708638
-0.852775
0.20704
0.205821
0.214296
0.214993
0.210981
0.210103
0.00225123
-0.0035034
-0.0144132
-0.0010344
-0.00805912
0.458555
0.451975
0.20884
0.205891
0.220663
0.242822
0.232017
-0.0242135
0.278451
0.299015
0.300052
0.475838
0.472565
0.48027
0.589727
0.553178
0.653758
0.676885
0.00867248
0.00296197
-0.0240497
-0.016682
-0.0211251
0.173207
0.166514
0.190682
0.180143
0.182518
-0.0827325
-0.218354
0.085315
0.108526
-0.592098
-0.659495
-0.772074
-0.783551
-0.895708
0.237179
0.383972
0.386977
-0.507768
-0.424892
-0.5692
-0.349893
-0.418915
0.186071
0.192779
0.187925
0.20309
0.197725
0.199649
0.211573
0.20865
0.210232
0.202669
0.319497
0.0879235
0.0733264
-0.575864
-0.479675
-0.562977
-0.447754
-0.44117
-0.163748
-0.148762
-0.189707
-0.177683
-0.442112
-0.393949
-0.415343
-0.111475
-0.0786393
0.125391
0.11643
0.143457
0.149371
0.187527
0.188227
0.190792
0.189075
0.636956
0.659245
0.666913
0.64072
-3.89481
-6.72245
-0.266747
-0.123725
0.000952612
0.00328662
0.00267886
0.00630216
0.00159998
-0.000607177
-0.120792
-0.0985094
-0.0487781
-0.0646987
0.334054
0.336696
0.676724
0.669095
0.662905
0.616168
0.195195
0.197306
0.202709
0.198581
-0.0451837
-0.0131205
-0.0275671
0.420437
0.439132
0.435366
-0.0593719
-0.14564
0.0220046
0.049183
0.319997
0.303483
0.320389
0.362645
0.400625
0.684336
0.702756
0.700925
0.70953
0.753572
0.769987
0.735332
0.154108
0.163805
0.158985
0.194232
0.191707
0.192913
0.187789
0.189584
0.186875
-0.372223
-0.759622
0.171631
0.190148
0.151579
0.159326
0.32386
0.391446
0.368906
0.376312
0.380061
-0.28537
-0.349042
0.00137276
-0.043244
0.0745674
0.105796
0.0896871
0.608086
0.568728
0.618689
0.591948
0.553536
0.578771
-0.711486
-2.24207
-1.34349
0.240678
0.0462962
0.137372
-0.157853
-0.181877
-0.158413
0.65276
0.731895
0.361404
0.52095
0.53978
0.442261
0.473007
0.526357
0.451741
0.486079
0.521854
0.503196
0.193642
0.174964
0.166358
0.455737
0.512753
-0.172367
-0.223331
-0.275905
-0.1372
-0.0761153
-0.108704
0.703115
0.578222
0.659872
0.205683
0.206356
0.00812241
0.0102813
0.210344
0.210353
0.005318
-0.00330088
0.118715
-1.1752
-0.183079
0.19859
0.189346
0.205972
-0.411565
0.0945692
-0.300469
-0.247408
-0.0923206
0.196096
0.142134
0.108981
0.00674863
-0.00677757
-0.0169838
-0.523201
0.203316
0.201604
0.205496
0.206505
0.207172
0.00546989
0.00483636
0.00412956
-0.00834864
-0.000609607
-0.00138686
0.171424
0.186946
-0.480622
0.205575
0.207778
0.207528
0.20044
0.206247
0.204427
-0.00284529
-0.00393629
-0.017147
-0.072845
0.0422887
0.375255
0.481239
0.331019
0.101483
-0.143153
0.270537
0.339457
0.236934
0.403225
0.371574
0.392327
-0.123129
-0.269403
-0.113107
-0.167724
0.196634
0.195339
0.187498
0.184682
0.201055
0.19921
0.203493
0.200361
0.203336
0.204864
-0.393911
-0.424308
-0.406234
-0.464351
0.0482629
0.297721
-0.0133737
0.0631369
-0.135926
-0.269289
-0.20208
-0.384513
-0.413626
-0.554194
-0.147756
-0.23254
-0.272415
-0.0282399
-0.157123
-0.377432
-0.230598
-0.287066
0.190482
0.188491
0.196398
0.203128
0.150008
0.15213
0.124577
0.141257
0.128244
0.0740915
0.107062
0.0847212
0.00563344
0.00914392
0.00449756
-0.00612264
-0.0198442
0.00227868
0.0075794
0.0121776
-0.0021407
-0.00195785
-0.0204442
-0.0153601
-0.484611
-0.59725
0.651558
0.618102
-0.211102
0.192503
0.19889
0.195694
0.200701
0.203613
0.204355
0.202124
0.198789
0.187811
0.189788
0.185532
0.186304
-0.423913
-0.559561
-0.380916
-0.445807
-0.19251
0.310075
0.0548924
-0.00408495
-0.0082332
0.202569
0.600546
0.407665
0.432707
0.458535
-0.673626
-0.270059
-0.603069
0.0167398
-0.16479
0.37171
0.424946
0.449046
0.394335
0.343151
-0.445881
0.206848
-0.364547
-0.321816
-0.133419
-0.234365
0.418654
0.35541
0.361933
0.382573
0.40506
0.360767
0.338861
0.336014
0.373967
0.378345
0.175866
-0.0407619
-0.0864331
-0.122432
0.342024
0.215221
0.268871
0.187831
0.191483
0.194307
0.192838
0.176168
0.183107
0.17906
0.184596
0.187276
0.196718
0.196841
0.192441
0.194592
-0.424768
-0.430291
-0.383002
-0.447434
-0.451252
-0.493894
-0.407621
-0.203114
-0.233744
-0.0763391
0.0276737
-0.249978
-0.390531
-0.360277
-0.333526
-0.124437
-0.101393
-0.33176
-0.139768
-0.176613
-0.225957
-0.0209692
-0.0238436
-0.455892
-0.545109
-0.525434
-0.454241
-0.248761
-0.206157
-0.175361
-0.176764
-0.315205
-0.162442
-0.100186
-0.489192
-0.559727
-0.548648
-0.45558
1.52406e-05
-0.00713938
-0.0199063
-0.0689104
-0.0466322
-0.0715414
0.186234
0.18665
0.186797
0.199766
0.211639
0.226889
0.192704
0.169094
0.162449
0.16445
0.14037
0.149072
0.145258
0.157551
0.175987
0.182985
0.18263
0.184624
0.169248
0.169777
0.159375
0.16302
0.141088
0.124207
0.114019
0.00202633
0.00362933
0.00103333
-0.00630557
0.00809524
0.00382891
-0.0520353
-0.016105
-0.0280817
-0.0235593
-0.0708173
0.0112418
0.00515972
-0.404932
-0.331505
-0.511042
-0.538948
-0.60933
0.560254
0.672007
0.506114
0.284623
0.284183
0.510922
0.608105
0.262651
0.432671
0.462863
0.199556
0.470545
0.197459
0.196753
0.194192
0.193771
0.195148
-0.3365
-0.241197
-0.227021
-0.176135
-0.0632237
0.05096
-0.0407582
-0.154635
-0.0145524
-0.00455629
0.304826
0.32069
0.26452
0.290288
0.290477
0.11634
0.191642
0.24529
0.202106
0.244991
0.266836
0.228272
0.258258
0.205301
0.164458
0.163606
0.111055
0.130935
0.1089
0.091926
0.187402
0.166679
0.175709
0.169001
0.188089
0.215554
0.210871
0.234617
0.247376
0.173779
0.136717
0.145207
0.17164
0.13566
0.148083
0.162089
-0.129636
-0.227296
-0.138095
-0.431483
-0.338666
-0.354569
-0.400167
-0.364136
-0.0770515
-0.781608
-0.747321
-1.38552
0.1411
0.629042
0.373946
0.347274
0.403227
0.380667
0.384161
0.415801
0.421288
0.332233
0.348177
0.353346
0.301387
0.326362
0.358014
0.353518
0.186343
0.0675536
0.0568166
0.0209856
-0.0988296
-0.0691405
0.131763
0.0559248
-0.0151789
-0.00943382
0.151565
0.0450592
0.107137
0.145136
0.0781694
0.0374218
0.232265
0.299982
0.289954
0.264003
0.179425
0.191108
0.216437
0.252544
0.277792
0.312114
0.183865
0.189731
0.191021
0.188721
0.186168
0.18881
0.18876
0.191334
0.19228
0.194971
0.194012
-0.470302
-0.513447
-0.446967
-0.45828
-0.399997
-0.375374
-0.281983
-0.331988
-0.488259
-0.450917
-0.426396
-0.434027
-0.461777
-0.48529
-0.206313
-0.195131
-0.180976
-0.239868
-0.05092
0.084897
0.142097
0.0242587
-0.0746004
-0.0397439
-0.016862
-0.466876
-0.386096
-0.521119
-0.364599
-0.395333
-0.278953
-0.216909
-0.232955
-0.322954
-0.342565
-0.151917
-0.0271841
-0.0526773
-0.0753322
-0.0557542
-0.0346841
0.172606
0.167566
0.166006
0.16156
0.160722
0.171874
0.176387
0.178814
0.184152
0.185132
0.176491
0.180651
0.183844
-0.0189315
0.00640482
0.00815606
-0.0380757
-0.00818385
0.00138465
-0.0146027
-0.207287
-0.284872
-0.285369
-0.323608
-0.45385
-0.395935
0.13681
0.118159
0.14225
0.348538
0.208461
0.123367
0.19715
0.308035
-0.0545895
0.131576
-0.0320929
0.534443
0.423425
0.562994
0.206763
-0.104819
0.0409215
0.0956105
-0.102013
-0.0273966
-0.00383461
-0.114957
-0.0814688
-0.0536947
0.0463876
-0.0798113
-0.111353
-0.356803
-0.174018
-0.0397806
-0.0598579
0.0678945
0.129263
-0.0947884
-0.175055
-0.211887
0.294316
0.313862
0.330465
0.302423
0.326186
0.250403
0.241959
0.260589
0.271443
0.264482
-1.11667
-0.827622
-1.76829
-1.0777
-0.631967
0.170727
0.126991
0.421699
0.312601
0.393256
0.374526
0.333495
0.294691
0.304968
0.343122
0.044225
0.150856
0.125149
0.134329
0.0391091
-0.0267602
0.267017
0.261523
0.297145
0.320927
0.290364
0.322839
0.182258
0.181907
0.18092
0.178233
0.176617
0.178531
-0.324713
-0.400389
-0.261695
-0.279357
-0.32814
-0.381894
-0.0247078
-0.051596
-0.0472136
-0.0383434
-0.00027011
-0.0272126
-0.181777
-0.236204
-0.303645
-0.274884
-0.337885
-0.404647
-0.42605
-0.319869
-0.228906
-0.237569
0.0684693
0.317
0.145349
0.309668
0.141649
0.201843
0.141581
0.133272
0.168481
0.0361172
0.112999
-0.142367
-0.640446
-0.54847
0.431113
0.452628
0.233615
0.0386793
-0.184454
0.0141296
0.215098
0.154188
0.194311
0.261036
0.254055
-0.350009
-0.274327
-0.0417959
0.185531
-0.119003
-0.125967
-0.130127
0.0336569
-0.033591
)
;

boundaryField
{
    wall-4
    {
        type            zeroGradient;
    }
    velocity-inlet-5
    {
        type            zeroGradient;
    }
    velocity-inlet-6
    {
        type            zeroGradient;
    }
    pressure-outlet-7
    {
        type            fixedValue;
        value           uniform 0;
    }
    wall-8
    {
        type            zeroGradient;
    }
    frontAndBackPlanes
    {
        type            empty;
    }
}


// ************************************************************************* //
