/*--------------------------------*- C++ -*----------------------------------*\
| =========                 |                                                 |
| \\      /  F ield         | OpenFOAM: The Open Source CFD Toolbox           |
|  \\    /   O peration     | Version:  4.0                                   |
|   \\  /    A nd           | Web:      www.OpenFOAM.org                      |
|    \\/     M anipulation  |                                                 |
\*---------------------------------------------------------------------------*/
FoamFile
{
    version     2.0;
    format      ascii;
    class       volVectorField;
    location    "22";
    object      U;
}
// * * * * * * * * * * * * * * * * * * * * * * * * * * * * * * * * * * * * * //

dimensions      [0 1 -1 0 0 0 0];

internalField   nonuniform List<vector> 
918
(
(0.985154 -0.000528276 0)
(0.00500542 2.96625 0)
(-0.016874 1.55766 0)
(0.979695 0.00216498 0)
(-0.00216154 1.54723 1.28745e-20)
(-0.00703422 2.94879 -1.85838e-18)
(0.853671 1.19671 7.34102e-19)
(0.403851 0.182952 -8.86834e-21)
(0.999905 -0.000308521 0)
(0.070802 0.831528 0)
(-0.0596861 0.886131 0)
(0.752709 -0.0118873 0)
(0.0110959 2.93039 0)
(0.00162567 2.79484 0)
(-0.0177258 3.16705 1.08797e-18)
(-0.000903368 1.42756 2.43322e-20)
(0.520203 0.0797289 5.57535e-19)
(0.191841 1.20653 6.43774e-19)
(0.963055 0.00513139 0)
(0.00262403 1.26779 0)
(0.131505 0.240116 -4.70545e-19)
(1.00207 -0.00499019 0)
(1.00022 -0.00976574 0)
(0.97574 -0.00645285 0)
(0.6638 -0.038734 0)
(0.0173247 2.63327 0)
(-0.0151364 2.91018 6.41064e-19)
(-0.02626 1.57777 0)
(-0.0347966 1.72254 0)
(-0.0268237 1.56968 0)
(-0.0044591 1.86358 0)
(0.00542716 1.57349 -1.01818e-20)
(-0.00080651 1.44001 0)
(-0.0206265 2.98759 -6.49509e-23)
(-0.0167024 3.0053 1.44453e-18)
(0.00210301 3.00021 0)
(0.870782 -0.00933423 0)
(0.396044 0.933822 -3.53022e-20)
(0.832018 1.21538 -1.02661e-18)
(0.978447 1.05011 9.62928e-19)
(0.699297 1.31156 -1.70352e-19)
(0.697561 1.30129 9.55678e-19)
(0.440551 0.273891 8.65254e-21)
(0.434899 0.169552 0)
(1.16218 0.561035 0)
(0.405585 0.282594 4.05123e-20)
(0.361205 0.18259 -4.20433e-20)
(0.919538 -0.00740798 0)
(1.00027 8.58881e-05 0)
(0.999909 0.000321616 0)
(1.00356 -0.00779554 0)
(1.00095 -0.00103502 0)
(1.00017 1.39623e-06 0)
(0.0674827 1.8114 -2.91095e-19)
(0.0210317 0.968122 0)
(0.0899428 0.924761 0)
(0.0256859 0.88659 0)
(0.0128837 0.741753 0)
(-0.0470238 1.58564 0)
(-0.0661414 0.927398 0)
(-0.0388884 0.748076 0)
(-0.0568834 1.06854 0)
(-0.0458902 1.02119 0)
(0.836661 -0.00627092 0)
(0.857436 0.0128742 0)
(0.769681 -0.000864389 0)
(0.848483 0.0168406 0)
(0.739698 -0.014677 0)
(0.0146992 3.0004 6.80093e-19)
(0.0115193 3.00789 0)
(0.00613482 3.00284 0)
(0.0135335 2.99732 7.5783e-24)
(0.00799886 2.95847 -1.01079e-18)
(0.0144893 2.98211 0)
(0.0107983 2.90363 0)
(0.0248603 2.93064 1.35379e-24)
(0.00423615 2.82505 0)
(0.0311447 2.91568 0)
(-0.00616918 2.74389 0)
(0.31124 3.56733 0)
(-0.132515 3.64954 0)
(0.1411 3.25793 -1.01252e-18)
(-0.0112128 2.99032 0)
(-0.0307252 1.83514 0)
(0.0153791 1.60971 -2.40022e-20)
(0.00136083 1.42432 3.79059e-20)
(0.5784 0.154027 -1.9188e-19)
(0.519153 0.0504184 -1.8637e-19)
(0.565234 0.177961 -5.77908e-19)
(0.513206 0.107689 -3.89384e-19)
(0.211448 0.898678 0)
(0.274264 1.35296 -6.6856e-19)
(0.393801 1.31319 1.09956e-18)
(0.98762 0.00853189 0)
(0.942218 0.00595732 0)
(1.00029 0.000572414 0)
(1.00287 0.00929119 0)
(1.00303 0.00848775 -1.07013e-18)
(0.991939 0.00965955 8.08112e-19)
(-0.0143149 1.42743 0)
(-0.0122089 1.2461 0)
(-0.0344186 1.58466 0)
(-0.0201842 1.48318 0)
(-0.000638541 1.30721 0)
(0.19398 0.249954 1.45048e-19)
(0.240179 0.226871 0)
(0.993549 -0.00829293 0)
(0.95438 -0.00639689 0)
(0.816703 0.0255189 0)
(0.78335 0.0372599 0)
(0.71655 -0.0297518 0)
(0.985357 -0.00358144 0)
(0.724615 0.0524611 0)
(0.572663 -0.0182335 7.43367e-19)
(-0.0360584 2.86505 3.24499e-19)
(0.0431461 2.9079 0)
(0.0562938 2.88357 0)
(-0.00557584 2.69713 0)
(-0.013013 2.98539 5.88142e-19)
(-0.0181877 2.89554 0)
(-0.0153063 2.98815 -1.86287e-18)
(-0.0134288 2.92525 6.43609e-19)
(-0.0352999 1.80717 0)
(-0.0302112 1.80857 0)
(0.00715388 1.58641 6.16805e-22)
(0.00763914 1.56308 0)
(-0.00558327 1.43575 0)
(0.937069 -0.00625352 0)
(0.855739 -0.00931317 0)
(0.864825 0.00843861 0)
(0.948631 -0.00750032 0)
(0.883166 -0.00865506 0)
(0.509951 1.12944 3.31778e-20)
(0.561695 1.1843 0)
(0.355514 0.872134 3.81743e-21)
(0.298706 0.733535 0)
(0.938162 1.08691 -2.78307e-19)
(1.05041 0.884635 5.70189e-19)
(0.392083 1.40385 0)
(0.551519 1.37944 0)
(0.553449 1.33545 0)
(0.0975563 0.15378 -1.29902e-19)
(0.484233 0.257539 0)
(0.467566 0.156465 1.11175e-19)
(1.02053 0.938337 0)
(1.08683 0.78201 0)
(1.11253 0.724623 -4.99585e-19)
(1.14229 0.620398 0)
(1.19347 0.403971 5.79226e-20)
(0.957153 -0.00893849 0)
(0.962196 -0.0102077 0)
(0.901026 -0.00807788 0)
(0.984179 -0.00914212 0)
(0.974514 -0.00940169 0)
(0.936886 -0.00627895 0)
(1.00019 0.00233703 0)
(1.00085 0.00131272 0)
(0.999931 0.000862116 0)
(0.0289323 2.01789 1.77047e-19)
(0.131251 1.7105 0)
(0.00337745 2.10432 1.96552e-19)
(0.0187223 1.87697 -1.11564e-19)
(0.134897 1.19896 -5.33527e-19)
(0.0670976 1.05504 0)
(0.100253 1.05793 0)
(0.00758219 0.826263 0)
(-0.00150184 0.682184 0)
(-0.0649271 1.84283 2.64044e-21)
(-0.0713309 1.73496 0)
(0.0118943 1.74 1.5997e-19)
(-0.0351124 1.45637 -3.0541e-19)
(1.14003e-05 0.786668 0)
(-0.0344384 0.825621 0)
(-0.0202794 0.676482 0)
(-0.0501075 1.19834 0)
(-0.0327247 1.11778 0)
(0.929924 0.0144506 0)
(0.856 -0.0020697 0)
(0.916203 0.0039933 0)
(0.8342 -0.00986858 0)
(0.812041 0.00541257 0)
(0.903222 0.0158569 0)
(0.880803 0.016323 0)
(0.786739 0.00413235 0)
(0.00585627 3.06485 -5.96664e-21)
(0.0165282 3.05802 0)
(0.0147374 2.96914 0)
(0.00854984 2.8763 0)
(0.929641 3.98744 0)
(1.24562 3.31739 1.0167e-18)
(0.0715258 3.08228 0)
(-0.0263445 2.91068 0)
(-0.0387147 1.80009 0)
(-0.0427002 1.82691 0)
(-0.0354367 1.81062 0)
(-0.0134951 1.85225 4.86709e-21)
(-0.0344575 1.84796 0)
(-0.0224904 1.84198 0)
(0.0162663 1.42545 -3.66388e-20)
(0.0431235 1.63213 -9.60357e-20)
(0.0274217 1.62072 -3.85012e-20)
(0.00662288 1.42222 0)
(0.609828 0.124695 2.82705e-19)
(0.537351 0.0200481 -2.75566e-19)
(0.26415 1.53093 0)
(0.257729 0.668934 -2.09403e-19)
(0.172222 1.61407 -7.02614e-19)
(0.242448 1.15843 7.04675e-19)
(0.903466 0.00663738 0)
(0.967752 0.0107279 0)
(0.97487 0.0106942 0)
(0.924178 0.00662565 0)
(-0.0412491 1.30564 0)
(-0.0249176 1.38225 0)
(-0.0258901 1.19159 0)
(0.361185 0.28321 3.73527e-19)
(0.305131 0.264961 -4.56004e-19)
(0.312269 0.204166 0)
(1.11018 0.0855943 -3.92473e-21)
(1.09531 0.0396124 0)
(1.02256 0.0391007 0)
(0.924271 0.0042646 0)
(0.633847 0.0938435 0)
(0.66534 0.0684135 -1.19662e-18)
(0.552641 0.00497109 4.57268e-19)
(0.00975913 2.9821 4.13637e-19)
(-0.0321568 2.8677 4.85819e-20)
(0.00375785 3.05016 -1.28989e-20)
(0.0200347 3.04353 4.64279e-19)
(-0.015035 2.99656 2.14083e-20)
(-0.012972 2.94945 -8.67176e-23)
(-0.0172626 3.012 -4.06442e-19)
(0.0147639 3.02411 2.93625e-19)
(0.00727272 3.03667 -4.5837e-19)
(0.925729 -0.00122545 0)
(0.935076 -0.00241052 0)
(0.841258 -0.0074961 0)
(0.957262 0.0113789 0)
(0.94401 0.0131721 0)
(0.883396 0.00688009 0)
(0.919157 0.0147768 0)
(0.92789 0.0145468 0)
(0.83994 0.00750205 0)
(0.718185 1.41412 3.33197e-19)
(0.753578 1.52517 0)
(0.220858 0.357092 2.46158e-20)
(0.183497 0.590073 2.00038e-19)
(0.266796 0.693309 -1.11734e-19)
(0.229054 0.575284 2.03558e-19)
(0.293548 0.706561 7.38882e-19)
(0.108061 0.188623 2.08972e-19)
(0.546368 0.214144 4.18038e-19)
(0.515858 0.241052 1.03759e-19)
(0.495676 0.139059 2.1002e-19)
(1.18287 0.461007 2.98729e-19)
(1.20053 0.256031 3.12035e-19)
(-0.056305 2.10976 3.49749e-20)
(-0.0290823 1.89442 0)
(0.973837 0.0296577 0)
(0.94107 0.0192756 0)
(0.882191 -0.00277691 0)
(0.0109655 3.07445 0)
(0.0198512 2.9441 7.94824e-19)
(0.0165252 2.95637 0)
(0.00618516 2.85077 -7.88329e-19)
(0.0061766 3.09142 1.88149e-19)
(0.00738262 3.08273 0)
(0.787556 1.83029 -2.40975e-19)
(1.25287 2.51346 6.64095e-19)
(0.770332 1.97144 -1.49923e-18)
(0.0209937 2.98356 -3.01139e-19)
(0.0373169 3.00654 0)
(-0.0322909 2.88172 0)
(0.066112 1.66162 7.91669e-21)
(0.0623955 1.66606 2.82716e-19)
(0.0438424 1.4308 -1.04912e-20)
(0.276877 1.34151 6.79591e-19)
(0.214704 0.447873 -4.69025e-19)
(0.0637176 1.94048 4.68421e-19)
(0.131541 1.83061 -5.88242e-19)
(0.193314 1.4457 8.56372e-20)
(0.0031067 3.11811 -1.10842e-18)
(0.017632 3.1178 1.18512e-18)
(-0.00874104 2.98108 5.09091e-19)
(-0.00268389 2.97769 -4.49731e-19)
(-0.0214871 2.88228 -5.18493e-19)
(0.00878217 3.09902 -1.37732e-18)
(0.00224702 3.10667 1.33819e-18)
(0.231157 0.623142 0)
(0.185355 0.609756 -3.89472e-19)
(0.116802 0.204615 1.75698e-19)
(0.320112 0.828902 6.30801e-19)
(0.170454 0.224918 -9.67651e-19)
(1.19494 0.171883 -5.8269e-20)
(1.19983 0.308591 0)
(1.18372 0.120021 1.2239e-19)
(-0.0520801 1.98375 2.14752e-21)
(-0.0518866 2.06455 0)
(-0.0446355 1.85029 0)
(0.329991 1.22682 -2.4662e-19)
(0.349809 1.0405 -5.22918e-19)
(0.188465 0.320645 8.9405e-19)
(1.00585 -0.0110327 0)
(1.0076 -0.00761133 1.95285e-19)
(-0.0372607 1.7857 0)
(-0.0443289 1.79059 0)
(1.00223 0.0034309 1.73775e-21)
(1.0035 0.00920931 4.01688e-19)
(-0.0184352 1.86432 -6.31532e-21)
(-0.0124648 1.87031 0)
(0.0395005 3.18314 1.10441e-19)
(0.40031 3.5026 0)
(1.11915 0.644685 6.62794e-20)
(1.0132 0.0127995 -2.03141e-21)
(1.02104 -0.0106148 0)
(1.00174 -3.24507e-05 4.20365e-23)
(0.158423 1.29863 0)
(0.178038 2.56577 0)
(-0.206124 1.12979 0)
(-0.217607 2.64037 -2.06171e-19)
(-0.207214 2.338 -4.2187e-20)
(1.00734 0.0162726 3.10732e-21)
(1.05091 0.00340654 0)
(1.07598 0.0305373 0)
(-0.0471144 1.82673 0)
(-0.0365489 1.9504 0)
(-0.07906 1.70543 0)
(0.297079 1.45811 -4.41274e-19)
(1.01114 -0.0096319 0)
(1.00946 -0.0152604 0)
(1.00244 0.000433882 2.48487e-19)
(1.00549 -0.0049977 -2.93751e-19)
(1.00123 -0.0010752 0)
(-0.061884 1.80686 0)
(-0.0449673 1.78224 0)
(-0.0474628 1.79763 0)
(-0.0660987 1.71272 0)
(-0.0406979 1.74858 0)
(-0.0492699 1.74049 0)
(1.03352 -0.0102047 0)
(1.02061 0.0152813 -1.17778e-21)
(0.780613 1.26226 5.21658e-19)
(1.00229 0.000281112 -2.47695e-19)
(1.00391 0.00526211 2.92983e-19)
(1.00124 0.00209355 0)
(1.013 0.0100955 2.41929e-19)
(1.00819 0.00823077 -3.00596e-19)
(1.00871 0.0145658 0)
(-0.0342015 1.94458 0)
(-0.0255757 1.90322 -8.90643e-21)
(-0.0219154 1.90865 8.9813e-21)
(1.19161 0.257969 -7.5556e-20)
(1.12996 0.0889662 0)
(0.0522374 3.07766 -5.13231e-19)
(0.0682997 2.85133 -4.11402e-20)
(0.14773 3.197 8.1113e-19)
(0.142142 3.22629 5.87671e-22)
(0.139885 3.24203 0)
(0.0216911 3.13834 1.10947e-19)
(0.0806503 3.16227 5.00176e-19)
(0.0734619 3.18937 -2.1453e-19)
(0.024979 3.12899 0)
(0.662219 0.323761 0)
(0.594259 0.369766 0)
(1.09228 0.672393 -2.53455e-19)
(1.09004 0.811431 3.91441e-19)
(1.1476 0.560861 0)
(1.17954 0.502843 0)
(1.0161 0.0130059 -4.47111e-19)
(1.0148 0.0140095 5.58662e-19)
(1.02516 -0.010472 0)
(1.02337 -0.0122138 0)
(1.00697 0.00264233 0)
(1.01029 0.00321845 0)
(1.00477 0.00156057 0)
(1.00994 0.00601657 0)
(1.00808 0.00631518 0)
(1.00422 0.00447642 0)
(0.159759 1.29991 0)
(0.133119 1.17796 0)
(0.179147 1.38219 0)
(0.122742 1.36965 0)
(0.153664 2.58271 0)
(0.189558 2.63729 -2.12238e-19)
(0.102697 2.6385 0)
(0.0935766 2.63358 1.25499e-20)
(-0.0163177 2.70928 2.04962e-19)
(-0.181936 1.18837 0)
(-0.190652 1.20645 0)
(-0.171117 1.12603 0)
(-0.0889713 0.986946 0)
(-0.305438 2.32108 3.53646e-19)
(-0.24895 2.46776 -1.85176e-19)
(-0.214569 2.63541 -2.59138e-19)
(-0.204639 2.56061 0)
(-0.193706 2.32643 1.00848e-19)
(-0.120835 2.23439 1.24181e-19)
(-0.351956 2.29096 -3.1781e-19)
(-0.31196 2.40549 2.47305e-19)
(-0.29031 2.50077 3.50216e-19)
(1.01673 0.0283104 4.4076e-19)
(1.01082 0.0167767 -5.43212e-19)
(1.00851 0.0256517 -4.61083e-19)
(0.991369 0.0121003 5.88933e-19)
(1.05124 0.0049182 0)
(1.03836 -0.0140426 0)
(1.07259 0.0380718 0)
(1.05677 0.0150038 0)
(1.05486 0.00908899 0)
(1.11375 0.0773191 0)
(1.08591 0.0489147 0)
(1.08836 0.0402747 0)
(-0.0414839 1.86783 -1.15347e-21)
(-0.0615533 1.84915 0)
(-0.043429 1.85191 0)
(-0.0469513 1.99214 -4.20154e-21)
(-0.0350817 2.01365 8.45875e-22)
(-0.110035 1.81612 5.80862e-21)
(-0.0746838 1.80417 -5.89341e-21)
(-0.0942748 1.74366 0)
(-0.0712945 1.77148 0)
(-0.0638763 1.7765 0)
(-0.105763 1.67063 0)
(-0.0785961 1.60396 0)
(0.382675 1.47439 8.39136e-19)
(0.406691 1.48952 3.27969e-19)
(0.591881 2.43426 -1.54939e-19)
(0.407431 2.52416 4.35339e-19)
(0.350335 2.09097 -4.7937e-20)
(1.02074 -0.00885296 0)
(1.01524 -0.0099857 0)
(1.0148 -0.0155435 0)
(1.0077 -0.00127548 0)
(1.00466 -0.00140343 0)
(1.00751 -0.00469667 0)
(1.00938 -0.00388003 0)
(1.01408 -0.00472949 0)
(1.02194 0.0158349 4.24709e-19)
(1.01738 0.0155295 -5.46183e-19)
(1.02346 0.0192363 -4.29424e-19)
(1.01819 0.0193802 5.38249e-19)
(0.754783 1.31087 0)
(0.687326 1.36809 6.18359e-19)
(0.857235 1.20171 3.59001e-19)
(0.899243 1.16019 -4.77937e-19)
(1.15101 2.61753 -5.59108e-19)
(0.835532 0.105997 2.89937e-19)
(1.13009 0.101964 0)
(1.17435 0.181518 6.53853e-20)
(1.15994 0.157319 2.88585e-21)
(0.984504 0.12252 0)
(0.147083 2.96617 1.29822e-19)
(0.124599 2.87194 -6.63982e-19)
(0.0364814 2.35743 4.79682e-19)
(0.102089 0.0866729 -2.02113e-19)
(0.344805 3.43063 -4.44243e-19)
(0.199153 3.32145 0)
(0.2403 3.36596 5.78545e-19)
(0.254569 3.04011 -7.47856e-19)
(0.349377 3.19986 0)
(0.00638194 3.12088 2.61008e-20)
(0.0170761 3.12973 -3.34336e-19)
(0.0149484 3.12562 4.92087e-19)
(0.0374609 3.14024 0)
(0.036208 3.15153 0)
(1.21697 2.61858 0)
(0.516596 0.853498 -2.35242e-19)
(1.02138 0.985282 -2.03822e-19)
(0.957069 1.05234 0)
(0.800008 0.948422 5.53523e-20)
(1.04276 0.862383 3.02121e-20)
(0.406282 0.447095 -5.38268e-19)
(0.700254 0.338134 -2.29117e-20)
(0.687033 0.280286 2.22868e-19)
(0.607592 0.399081 1.76661e-20)
(0.545229 0.380159 -7.258e-19)
(0.671964 0.359057 0)
(0.702544 0.42675 3.67648e-19)
(0.700178 0.423944 0)
(0.634158 0.390972 0)
(0.620613 0.329646 0)
(0.770623 0.58893 1.29868e-19)
(1.18997 0.27414 4.78845e-20)
(1.18686 0.405342 0)
(1.19856 0.359396 0)
(0.767626 0.195784 3.34329e-19)
(0.822839 0.527522 -1.81773e-19)
(0.736879 0.497136 2.97023e-19)
(0.913996 0.420097 -2.7735e-19)
(1.01931 0.0144668 2.93965e-19)
(1.01771 0.0139041 -3.01019e-19)
(1.01544 0.0153779 0)
(1.03468 -0.00697486 0)
(1.02911 -0.00968241 -2.69244e-19)
(1.02721 -0.0121654 2.6633e-19)
(1.02548 0.00830998 0)
(1.02444 0.0127022 0)
(1.01144 0.0036764 0)
(1.01427 0.00891736 0)
(1.01504 0.00344612 0)
(1.01407 0.00212218 0)
(0.149002 1.15112 0)
(0.103409 1.00694 0)
(0.195956 1.40093 3.7285e-19)
(0.269015 1.45307 2.55575e-19)
(0.186808 1.43759 5.71562e-19)
(0.19577 1.43372 -9.25559e-19)
(0.179481 1.40707 0)
(0.137517 1.59154 2.48003e-19)
(0.15122 1.57967 0)
(0.335415 2.04066 6.96754e-20)
(0.345077 2.37597 2.32779e-19)
(0.150377 1.46442 -2.16793e-19)
(0.249294 1.37403 1.95523e-19)
(0.185961 1.38615 -1.56806e-19)
(0.262647 1.32088 3.18316e-19)
(0.220754 1.57281 0)
(0.270248 1.61921 -2.04984e-19)
(0.0504065 2.42813 1.48958e-19)
(-0.0226471 2.71288 0)
(0.090435 2.44687 -2.12153e-19)
(0.0567345 2.52116 0)
(0.0738145 2.6587 -1.65182e-20)
(0.0126223 2.71457 0)
(-0.305222 1.48544 4.77533e-19)
(-0.272403 1.65441 0)
(-0.130924 1.29938 0)
(-0.226168 1.26699 -5.38316e-19)
(-0.20374 2.68338 -8.29348e-20)
(-0.0988067 2.7546 -3.05742e-19)
(-0.160701 2.71598 -1.70905e-21)
(-0.452311 2.09426 -8.85103e-20)
(-0.448271 2.0456 -1.32405e-19)
(-0.175737 1.30762 0)
(-0.130666 1.3384 0)
(0.0427252 1.83151 -7.11559e-19)
(-0.0324995 1.42624 -7.68683e-19)
(-0.0744987 1.64252 9.74375e-19)
(0.189834 1.81586 0)
(-0.11651 1.91718 -8.09625e-23)
(-0.0969856 1.97078 -5.36016e-21)
(-0.119156 2.01082 3.9345e-21)
(-0.413863 1.97366 1.07209e-19)
(-0.204262 2.16238 1.35183e-20)
(-0.236232 2.22785 -7.66298e-20)
(1.02076 0.023602 -2.90721e-19)
(1.01823 0.0260397 2.89639e-19)
(1.01397 0.0214882 0)
(1.00751 0.0486876 4.21313e-19)
(0.994294 0.0351934 -4.9441e-19)
(0.964864 0.0231568 5.729e-19)
(1.00831 0.0840915 -5.44925e-20)
(1.03941 -0.00933818 0)
(1.04162 -0.00863598 2.40633e-19)
(1.03348 -0.0180995 -2.42681e-19)
(1.05964 0.0423639 -1.32773e-20)
(1.05591 0.0238413 1.18322e-19)
(1.05663 0.0515421 0)
(1.05008 0.0428422 -4.43252e-20)
(1.03927 0.0289112 0)
(1.03521 0.0250535 0)
(1.02812 0.0118431 0)
(1.02663 0.015176 0)
(1.04754 0.0267184 9.24033e-20)
(1.04644 0.018841 -2.09292e-19)
(1.05144 0.0266986 -9.29209e-20)
(1.04955 0.0274695 -1.08055e-19)
(1.05858 0.0582548 1.93136e-19)
(1.07822 0.051576 0)
(1.08314 0.0936201 0)
(-0.109919 1.90742 2.92607e-21)
(-0.0782999 1.85357 -9.52336e-22)
(-0.0890147 1.86558 0)
(-0.0716135 1.91387 -2.92914e-21)
(-0.0496578 1.87561 2.01844e-21)
(-0.0581039 1.89404 1.93062e-22)
(-0.0965468 2.19782 -1.28429e-19)
(-0.124409 2.06029 1.7771e-21)
(-0.150473 2.11151 -1.45926e-20)
(-0.0523945 2.08572 3.50533e-20)
(-0.0571929 2.10935 -3.93643e-20)
(-0.147669 1.77607 -8.15732e-22)
(-0.13835 1.82329 8.2934e-21)
(0.380398 1.3951 -4.21748e-19)
(0.372156 1.36353 -4.06589e-19)
(0.639119 1.41706 -5.95253e-19)
(0.516534 1.47934 -3.18937e-19)
(0.556539 1.45555 0)
(0.589602 2.4079 1.22989e-19)
(0.662473 2.38933 2.24253e-19)
(0.408545 2.50198 7.89323e-20)
(0.404907 2.55424 -1.65621e-19)
(0.518121 2.51418 2.63255e-19)
(0.545225 2.44752 0)
(0.485433 2.4929 -3.56331e-19)
(0.240117 2.56955 6.1158e-19)
(0.350811 2.5503 -7.92956e-20)
(0.282331 2.62796 -9.24654e-19)
(0.923107 2.37488 2.1076e-19)
(0.819282 2.36969 0)
(1.01032 0.000367383 9.76579e-21)
(1.01485 -0.00579461 -8.02045e-21)
(1.01826 -0.0039315 -1.45067e-19)
(1.01503 -0.00058265 1.45001e-19)
(1.01225 0.00107538 0)
(0.621502 1.26303 0)
(0.624083 1.17193 0)
(0.730432 1.07657 0)
(0.62365 1.12002 0)
(1.18159 2.63402 5.5815e-20)
(1.06502 2.36879 0)
(0.835312 2.23641 -1.8526e-21)
(0.824025 2.47863 0)
(0.914862 2.56449 1.37385e-20)
(0.948523 2.52082 -9.18643e-21)
(0.843797 0.145607 0)
(0.812821 0.147381 8.36431e-20)
(0.928208 0.125702 4.26492e-19)
(0.866509 0.116093 -1.70775e-19)
(0.850145 0.0660608 -5.15557e-19)
(1.03699 0.215353 -2.40304e-19)
(0.956046 0.272283 -1.58722e-20)
(0.903245 0.272136 3.87463e-19)
(0.970636 0.19874 2.87135e-19)
(0.93663 0.158936 -5.36352e-19)
(0.910346 0.171364 6.95619e-20)
(0.936397 0.234773 -1.35287e-19)
(0.913354 0.194017 0)
(0.971623 0.158069 2.56618e-19)
(1.01271 0.163665 0)
(1.00737 0.19043 0)
(1.07567 0.10966 8.1474e-20)
(1.03666 0.155623 -1.29935e-20)
(1.03099 0.217506 -4.56889e-20)
(1.06727 0.190494 0)
(1.02563 0.0285504 2.19592e-19)
(1.04289 0.0476798 2.61079e-19)
(1.04094 0.0318008 -2.18345e-19)
(1.04005 0.0526263 -1.7588e-19)
(1.01963 0.0539575 -2.96252e-19)
(0.974669 0.124459 0)
(0.986262 0.0775057 0)
(0.968436 0.0426317 -2.06435e-19)
(0.934979 0.0577887 8.61119e-20)
(1.02766 0.0839768 2.47286e-19)
(1.04309 0.110601 -2.49858e-19)
(1.04682 0.136572 2.28423e-19)
(1.01285 0.123382 0)
(1.0524 0.0972138 0)
(1.03998 0.0800474 -1.04306e-19)
(1.03688 0.0809354 -1.98641e-19)
(0.575037 1.07835 -1.00795e-19)
(0.618931 1.44528 2.01563e-19)
(1.15695 2.76016 1.07809e-19)
(1.22404 3.09675 -7.20972e-20)
(1.24635 2.73503 5.69603e-19)
(1.27932 2.71865 -3.43463e-19)
(1.20552 2.35375 -8.08382e-21)
(1.21001 3.00054 1.99429e-19)
(1.22769 2.96578 -2.232e-19)
(1.21624 3.25011 -2.70548e-19)
(1.37859 2.98143 3.74633e-19)
(1.37176 2.89833 0)
(0.517829 0.863232 -1.25464e-20)
(0.161178 1.28667 3.72635e-19)
(0.527391 0.522735 3.53888e-19)
(0.363106 0.292022 3.87409e-19)
(0.556101 0.413016 4.06458e-19)
(0.558119 0.483562 -6.48331e-19)
(0.563662 0.49672 5.33699e-19)
(0.522614 0.449062 -2.12538e-19)
(0.467615 0.385967 4.8639e-19)
(0.777147 0.250902 -1.86811e-19)
(0.728461 0.302589 0)
(0.722971 0.239372 1.08947e-20)
(0.728416 0.510326 1.88193e-19)
(0.697301 0.477554 -6.96393e-19)
(0.624557 0.479742 1.87575e-20)
(0.6376 0.457188 0)
(0.646535 0.726891 1.50665e-19)
(0.789706 0.750464 5.71131e-20)
(0.713198 0.835637 -7.48642e-20)
(0.835535 0.787452 -1.6927e-20)
(0.870358 0.830078 1.4177e-20)
(0.878828 0.832036 -1.45187e-20)
(0.810395 0.626964 -2.21754e-19)
(0.884802 0.679484 1.57303e-20)
(0.941646 0.696004 0)
(0.930853 0.674431 -1.42869e-20)
(0.981923 0.310498 6.10871e-20)
(1.09866 0.282615 3.27626e-21)
(1.02138 0.249017 9.80031e-20)
(0.965604 0.345162 -1.41474e-19)
(1.01613 0.403469 0)
(1.05917 0.390467 0)
(0.887832 0.355525 5.30546e-21)
(0.827428 0.283913 0)
(0.849668 0.272822 2.00079e-19)
(0.88191 0.27846 -5.73432e-21)
(0.906205 0.423105 7.58477e-19)
(0.869604 0.48024 1.92137e-19)
(0.873222 0.447952 -2.47531e-19)
(0.801995 0.433849 2.65669e-19)
(0.787945 0.432416 1.80733e-19)
(0.753263 0.414528 -1.776e-19)
(1.02724 -0.00133011 2.33735e-19)
(1.01988 -0.000170402 0)
(1.0183 0.000719794 1.5485e-19)
(1.02196 -0.00117003 -3.48392e-19)
(1.02164 0.0039543 1.68739e-19)
(1.02072 0.0103667 -3.54464e-19)
(1.02164 0.00983399 0)
(1.02056 0.0107659 -7.48316e-20)
(1.01607 0.00761205 1.87756e-19)
(1.01692 0.0103342 -9.41921e-20)
(1.01769 0.00955434 6.90103e-20)
(-0.0603454 1.04536 0)
(-0.0622664 1.22936 0)
(0.0461395 1.04633 0)
(0.0105576 0.929002 0)
(0.22246 1.34391 -8.55434e-19)
(0.218456 1.30728 2.76207e-19)
(0.232294 1.50687 1.8128e-19)
(0.218467 1.36689 -2.06762e-19)
(0.119325 1.50107 6.996e-19)
(0.158336 1.45974 -5.25599e-19)
(0.25769 1.31531 -1.99371e-20)
(0.221708 1.23122 5.88795e-19)
(0.143834 1.17231 8.68534e-20)
(0.0867478 1.18943 8.90654e-20)
(0.119993 2.40825 2.2171e-19)
(0.111881 2.43235 0)
(0.185734 2.07465 -2.5697e-20)
(0.18306 1.76014 -1.06784e-19)
(0.223116 2.07225 2.35112e-20)
(0.199483 2.44954 0)
(0.263814 2.40692 -1.36299e-19)
(0.295987 2.40963 9.68533e-20)
(0.20838 2.01339 6.28435e-20)
(0.148401 2.18503 6.58741e-21)
(0.146196 2.32008 0)
(-0.0292106 2.24826 7.05179e-19)
(-0.205598 2.62163 6.08371e-19)
(-0.167073 2.51843 0)
(-0.0385329 2.62327 -3.09737e-20)
(0.0166266 2.49423 -3.28569e-19)
(-0.336019 1.41576 -4.53878e-20)
(-0.292577 1.44778 6.64684e-19)
(-0.312443 1.53082 -1.39895e-19)
(-0.410426 1.53531 -2.8349e-19)
(-0.357296 1.4643 0)
(-0.296779 1.51617 0)
(-0.136847 1.56845 -3.82378e-20)
(-0.221572 1.60268 1.40479e-20)
(-0.274194 1.52967 0)
(-0.168652 1.43626 -3.75174e-20)
(-0.099931 1.48376 6.36801e-20)
(1.03908 0.00148141 0)
(1.0408 -0.00128704 -2.22465e-20)
(1.04672 0.0136214 -1.66209e-19)
(1.05077 0.0120939 0)
(1.05054 0.009477 0)
(1.04013 0.00373777 -6.71949e-21)
(1.0346 0.00505072 2.7472e-19)
(1.03608 0.0111429 3.32128e-19)
(1.02823 0.0187508 0)
(1.0271 0.0197685 0)
(1.04145 0.0204865 1.67306e-19)
(1.03373 0.0218627 0)
(1.03049 0.0213063 0)
(-0.233911 1.94327 0)
(-0.173074 1.83127 9.83751e-22)
(-0.186031 1.90902 3.2725e-22)
(-0.194551 1.64636 0)
(-0.224708 1.79142 -1.52154e-20)
(-0.173825 1.75179 -2.72303e-21)
(-0.1669 1.69993 0)
(0.401814 1.67858 0)
(0.369656 1.29294 6.60645e-19)
(0.295741 1.34789 0)
(0.430149 1.27427 -8.53841e-19)
(0.472662 1.44416 0)
(0.446554 1.3858 4.02176e-19)
(1.02563 2.70316 -4.00558e-21)
(0.947562 2.4082 -2.6599e-19)
(0.882914 2.15899 3.18362e-19)
(0.837175 2.36313 1.30411e-19)
(0.844579 2.51611 0)
(0.905863 2.51154 0)
(0.897755 2.36925 0)
(0.908462 2.33542 -4.62234e-19)
(0.695424 2.49551 -2.20036e-20)
(0.802383 2.48508 -1.41356e-20)
(0.81005 2.45842 1.0815e-20)
(0.688409 2.37057 0)
(0.785019 2.36754 0)
(0.753589 2.37708 -2.22778e-19)
(0.769806 2.50196 0)
(0.586819 1.08771 0)
(0.479566 0.936344 4.10863e-21)
(0.524085 0.966924 -9.87766e-22)
(0.510345 1.05595 0)
(0.510511 1.01238 -3.51103e-21)
(0.735782 0.862691 1.43994e-20)
(0.757739 1.00151 0)
(0.729536 0.957139 -6.39685e-20)
(0.61039 1.02307 0)
(0.612627 0.936007 0)
(1.16018 2.7803 6.01203e-20)
(1.13882 2.84463 1.28204e-19)
(0.93139 2.37399 -2.91367e-19)
(0.898827 2.34749 3.7014e-20)
(1.12288 2.74993 0)
(1.07379 2.72062 -4.43008e-20)
(1.07997 2.49338 -7.07959e-20)
(0.972715 2.22881 -3.00171e-20)
(0.48336 1.37287 0)
(0.492195 1.06719 8.88076e-20)
(0.539726 1.14934 0)
(0.856549 0.217517 0)
(0.81982 0.178075 0)
(0.781032 0.161791 0)
(0.850175 0.222019 -3.14615e-19)
(0.798357 0.217013 1.95698e-19)
(0.941325 0.0508018 -1.77221e-19)
(0.952921 0.100777 0)
(0.925711 0.104894 8.00261e-20)
(0.887929 0.0806493 3.28036e-19)
(0.880459 0.047382 -2.01406e-19)
(1.16672 3.37544 -9.86973e-19)
(1.2126 3.29496 0)
(1.16692 3.40213 -1.94343e-18)
(0.653038 3.56283 1.66821e-18)
(0.879649 3.12863 3.84362e-19)
(0.498865 0.886722 2.19692e-19)
(0.431087 0.873665 0)
(0.360017 0.553747 -8.39225e-20)
(0.44435 0.698485 3.81497e-19)
(0.534202 0.523295 -1.11994e-19)
(0.51873 0.547001 1.2962e-19)
(0.663265 0.527338 2.68168e-19)
(0.688766 0.542822 0)
(0.645185 0.622179 0)
(0.599037 0.551143 0)
(0.938683 0.585028 -5.20915e-20)
(0.871946 0.525271 -1.85776e-19)
(0.89364 0.558124 8.58838e-20)
(0.925407 0.499164 -1.36495e-19)
(1.02603 0.464376 0)
(1.03421 0.557411 -5.18638e-21)
(0.8229 0.390673 -4.01655e-19)
(0.824499 0.375098 -4.65445e-19)
(0.777846 0.387388 3.1501e-19)
(0.773322 0.356185 -3.55996e-19)
(0.822871 0.312147 -2.64916e-19)
(0.77824 0.314964 3.25913e-19)
(1.02597 0.00450055 -1.73643e-19)
(1.02583 0.00431574 3.52633e-19)
(1.03079 -0.00136091 2.21795e-19)
(1.03136 -0.00144132 -2.66157e-19)
(1.03493 0.000495883 0)
(1.03169 0.00220809 -4.30183e-19)
(0.187382 1.78439 -1.0232e-19)
(0.174085 1.73266 0)
(0.195765 1.77689 -5.60297e-19)
(0.190385 1.75075 5.26301e-19)
(0.215569 1.60632 -3.35816e-19)
(0.285082 1.61968 0)
(-0.398968 1.96256 0)
(-0.357125 1.72558 1.62986e-20)
(-0.3033 1.71576 -1.47783e-20)
(-0.254743 1.80434 1.63484e-21)
(-0.265718 1.96635 1.09692e-20)
(-0.30871 1.97822 -1.09149e-20)
(0.48157 1.38424 4.17656e-19)
(0.48359 1.38605 -4.48437e-19)
(0.441922 1.27554 4.20377e-19)
(0.434982 1.29388 -2.55358e-20)
(0.613728 1.28504 0)
(0.532121 1.36698 5.47552e-19)
(0.551718 1.39472 -5.30562e-19)
(0.448332 1.26243 -4.02548e-19)
(0.491372 1.22168 0)
(0.542265 1.18212 0)
(0.666088 2.45629 3.23252e-20)
(0.674815 2.47499 5.36049e-19)
(0.722016 2.49103 -3.68713e-19)
(0.632444 2.47437 -1.18238e-19)
(0.570611 2.57455 9.59482e-20)
(0.515546 2.54485 -2.92945e-19)
(0.960168 2.37108 -1.71357e-19)
(1.00411 2.39458 0)
(0.897788 2.14129 -2.3734e-19)
(1.04258 2.70016 0)
(1.04315 2.68737 0)
(0.623245 2.29607 2.47474e-19)
(1.0459 3.17678 4.88124e-19)
(0.917619 3.04636 -4.35825e-19)
(0.295071 0.971894 0)
(0.349354 0.844787 -1.51734e-19)
(0.493359 0.794043 -6.47561e-20)
(0.408308 2.05005 0)
(0.474632 2.79456 -2.67628e-19)
(0.43555 2.56048 0)
(0.664712 0.665834 -3.12029e-19)
(0.736003 0.652727 3.96041e-19)
(0.767166 0.602976 -3.86783e-19)
(0.666985 0.629777 -4.61985e-20)
(0.719991 0.584068 -1.88142e-19)
(1.0068 2.78362 -3.71084e-19)
(1.0394 2.8401 2.94317e-19)
(0.651427 2.19601 4.38795e-20)
(0.604009 1.73828 -6.27923e-20)
(0.705443 1.92743 1.17047e-19)
(0.991062 2.46611 -6.77922e-20)
(0.993823 2.46642 -1.70198e-19)
(0.672338 1.88169 -5.643e-21)
(0.458424 1.3501 -8.29268e-20)
)
;

boundaryField
{
    wall-4
    {
        type            noSlip;
    }
    velocity-inlet-5
    {
        type            fixedValue;
        value           uniform (1 0 0);
    }
    velocity-inlet-6
    {
        type            fixedValue;
        value           uniform (0 3 0);
    }
    pressure-outlet-7
    {
        type            zeroGradient;
    }
    wall-8
    {
        type            noSlip;
    }
    frontAndBackPlanes
    {
        type            empty;
    }
}


// ************************************************************************* //
