/*--------------------------------*- C++ -*----------------------------------*\
| =========                 |                                                 |
| \\      /  F ield         | OpenFOAM: The Open Source CFD Toolbox           |
|  \\    /   O peration     | Version:  4.0                                   |
|   \\  /    A nd           | Web:      www.OpenFOAM.org                      |
|    \\/     M anipulation  |                                                 |
\*---------------------------------------------------------------------------*/
FoamFile
{
    version     2.0;
    format      ascii;
    class       volScalarField;
    location    "67";
    object      p;
}
// * * * * * * * * * * * * * * * * * * * * * * * * * * * * * * * * * * * * * //

dimensions      [0 2 -2 0 0 0 0];

internalField   nonuniform List<scalar> 
918
(
0.556914
1.18239
0.00129359
0.556363
-0.0125558
1.14942
-0.510657
0.661718
0.537114
-0.109063
-0.0490674
0.539323
1.00992
0.775815
-1.12434
-0.0101221
0.651525
-0.381715
0.536229
-0.0583232
0.690173
0.543654
0.546678
0.537256
0.597979
0.751124
0.890815
0.0234123
0.00927847
0.00484345
-0.0118831
-0.0388481
-0.0329597
1.03308
1.08415
1.10684
0.504864
0.333027
-0.376094
-0.448897
-0.436549
-0.545227
0.659401
0.658267
-0.211564
0.664971
0.66707
0.524137
0.536484
0.537396
0.538414
0.5374
0.53878
0.404265
-0.109151
-0.140491
-0.0903617
-0.0836724
0.053302
-0.0509677
-0.0531406
-0.047201
-0.0472992
0.453982
0.533522
0.529917
0.543547
0.553487
1.12194
1.09387
1.12002
1.03361
1.05015
0.987928
0.960594
0.79661
0.818258
0.76064
0.749111
-1.5557
-2.50673
-0.534779
-0.284197
-0.0106136
-0.00787549
-0.00223006
0.648482
0.649817
0.650986
0.653246
1.07972
-0.37925
-0.479599
0.536371
0.535182
0.543499
0.5442
0.54022
0.53931
-0.0498008
-0.0467517
-0.0490343
-0.0547739
-0.052939
0.678099
0.678745
0.537785
0.534787
0.561071
0.58086
0.571056
0.277556
0.608688
0.624562
0.582597
0.745659
0.737894
0.747513
0.86432
0.827784
0.928109
0.951241
0.0166577
3.99434e-05
-0.0149792
-0.0195647
-0.0182288
0.500692
0.493227
0.520693
0.508303
0.510812
0.249751
0.116384
0.417991
0.442826
-0.295087
-0.361451
-0.429346
-0.460015
-0.56852
0.611691
0.656799
0.655284
-0.221875
-0.150004
-0.283201
-0.0769173
-0.139827
0.514394
0.521414
0.516408
0.531971
0.526435
0.528399
0.540756
0.537826
0.539385
0.466375
0.589914
0.330532
0.295174
-0.242967
-0.155506
-0.242739
-0.0728498
-0.0697173
0.067302
0.0929031
0.0401208
0.0284206
-0.0643515
-0.0569323
-0.0603402
-0.0454046
-0.0450701
0.446728
0.435513
0.466679
0.474247
0.519938
0.521486
0.525943
0.52369
0.911438
0.933668
0.941301
0.915196
-3.49586
-6.27697
0.0403644
0.176707
-0.00669198
-0.00935924
0.00200771
-0.00570728
0.000301882
-0.00189452
-0.00712094
-0.00855256
-0.00363539
-0.00244856
0.642959
0.644145
1.00188
1.00867
0.977574
0.930511
0.524593
0.526663
0.532158
0.528042
-0.0447305
-0.0451657
-0.0442372
0.670417
0.675796
0.673323
0.239054
0.149307
0.32863
0.357773
0.636739
0.625139
0.6349
0.642132
0.678354
0.958596
0.976822
0.975103
0.983545
1.02766
1.04413
1.00936
0.480092
0.490098
0.485032
0.523787
0.521564
0.522461
0.518561
0.519653
0.517747
-0.0340511
-0.413907
0.490092
0.507003
0.492387
0.494811
0.691859
0.770509
0.65295
0.65458
0.654065
-0.00776321
-0.0662574
0.250429
0.216319
0.386235
0.422674
0.401631
0.882511
0.843154
0.893192
0.86649
0.828004
0.853451
-0.36543
-1.86468
-0.983951
0.52566
0.340177
0.426969
0.010217
-0.00652859
-0.0020171
1.00132
1.07364
0.645638
0.820431
0.823155
0.716113
0.746075
0.800894
0.727457
0.761488
0.795749
0.777005
0.567642
0.503162
0.519097
0.839666
0.895446
0.119186
0.0576367
0.0137604
0.111762
0.169062
0.14318
1.03366
0.949252
1.01949
0.534549
0.53527
-0.0050456
-0.0189542
0.539518
0.539573
-0.0122264
-0.00139295
0.410568
-0.8319
0.0986317
0.528102
0.517993
0.535132
-0.0935622
0.355702
-0.0490391
0.0484242
-0.00806824
0.530011
0.465128
0.424189
0.000924351
-0.0191121
-0.0498821
-0.213396
0.532219
0.530523
0.534599
0.53554
0.536221
-0.0183043
-0.0138048
-0.0101068
-0.046644
-0.0406495
-0.0521861
0.499024
0.51838
-0.170596
0.534746
0.536881
0.536699
0.529964
0.535593
0.533846
-0.0099719
-0.0152192
-0.0174572
0.219386
0.351331
0.649879
0.736653
0.621619
0.397835
0.163116
0.553396
0.616627
0.522438
0.675933
0.652683
0.661967
0.164144
0.0138891
0.172917
0.114573
0.525963
0.524682
0.516246
0.513205
0.529999
0.528113
0.532672
0.529694
0.532645
0.534025
-0.0496063
-0.0775095
-0.0862228
-0.153698
0.310324
0.571491
0.254599
0.284396
0.142107
-0.0436076
-0.0444911
-0.0474953
-0.0562402
0.000870731
-0.023407
0.0433078
0.0435218
0.0151574
-0.0105153
-0.00762291
-0.0184602
-0.0131126
0.523504
0.523459
0.52726
0.536106
0.474787
0.478576
0.4434
0.464158
0.449412
0.388101
0.423418
0.398633
-0.00503549
0.00363012
-0.00208367
-0.0169853
-0.013775
-0.0326908
-0.0295059
-0.0251189
-0.0211112
-0.027823
-0.0441226
-0.0462786
-0.171433
-0.287359
0.988147
0.909482
0.13666
0.521364
0.527822
0.524582
0.529511
0.532638
0.533438
0.531146
0.527692
0.518626
0.520052
0.517023
0.518026
-0.102094
-0.243406
-0.0716952
-0.146063
0.144757
0.627967
0.363234
0.298693
0.293987
0.522673
0.916972
0.700122
0.670813
0.672911
-0.343471
0.0454382
-0.279955
0.335211
0.162299
0.649118
0.698585
0.720927
0.668404
0.621373
-0.101457
0.555489
-0.0734094
-0.0212785
0.180148
0.056365
0.662752
0.640265
0.647015
0.655087
0.669711
0.644134
0.627766
0.627105
0.649593
0.652607
0.483748
0.250105
0.200853
0.16239
0.642233
0.517842
0.568998
0.490278
0.521231
0.523782
0.52243
0.503864
0.511462
0.506975
0.513574
0.517175
0.525718
0.526192
0.521457
0.523587
-0.0570314
-0.0633886
-0.0275073
-0.135747
-0.128528
-0.190625
-0.061067
0.0751769
0.0360178
0.237108
0.341423
0.0520946
-0.0574972
-0.0304251
0.0120566
0.179886
0.208026
0.0751604
0.162431
0.153841
0.135338
0.237727
0.241096
-0.0278138
-0.0304069
-0.034597
-0.0363181
0.0192091
0.0903776
0.0999263
-0.0059136
-0.0118561
-0.0422959
-0.0427709
-0.0207893
-0.0271035
-0.0219909
0.00655722
-0.0521827
-0.0195611
-0.00563553
-0.00307369
-0.00457897
-0.010134
0.518044
0.519931
0.520271
0.526956
0.540322
0.555163
0.52036
0.497022
0.487795
0.490818
0.463672
0.473993
0.469739
0.483403
0.504414
0.513544
0.511653
0.514525
0.496542
0.498355
0.484914
0.488583
0.463599
0.444289
0.432367
-0.0417521
-0.002974
-0.0111063
-0.0371189
-0.00737593
-0.0194439
-0.0102108
0.00876474
-0.00756215
-0.00905399
-0.0192456
-0.0254243
-0.0249489
-0.0733516
0.013287
-0.18452
-0.220254
-0.293143
0.890316
1.01446
0.809895
0.582958
0.603129
0.846235
0.930889
0.543263
0.735468
0.758702
0.586452
0.853981
0.526214
0.52581
0.523409
0.52289
0.524111
-0.00748556
0.0986543
0.0972145
0.160303
0.276487
0.388185
0.31873
0.193798
0.323962
0.326451
0.620626
0.632887
0.588236
0.61242
0.612406
0.424876
0.500492
0.552183
0.512898
0.564973
0.586418
0.54043
0.573339
0.523164
0.478489
0.474555
0.424385
0.444041
0.419735
0.402836
0.515228
0.492907
0.503417
0.49405
0.514454
0.542683
0.53909
0.561217
0.576118
0.497641
0.452565
0.461954
0.492161
0.453492
0.469008
0.485162
0.232044
0.133947
0.216894
-0.0684636
0.00277867
-0.0098419
-0.0584948
-0.00743519
0.276836
-0.414388
-0.390851
-1.01817
0.503105
0.95392
0.595927
0.570826
0.669776
0.653939
0.660019
0.676875
0.6768
0.630677
0.640243
0.645088
0.59903
0.619808
0.638619
0.63491
0.52426
0.382674
0.381626
0.329805
0.199978
0.239691
0.43617
0.360199
0.285223
0.285396
0.456446
0.343124
0.412955
0.446673
0.378032
0.332645
0.535146
0.601271
0.59495
0.568024
0.479569
0.491902
0.516291
0.549917
0.574314
0.606334
0.512972
0.518915
0.520145
0.517614
0.514894
0.517986
0.518269
0.520826
0.521425
0.524437
0.523498
-0.0509052
-0.0368421
-0.0505404
-0.0616086
-0.0190941
-0.021221
0.0222625
0.00942319
-0.0144001
-0.00941459
-0.0322812
-0.0366671
-0.0332514
-0.0248978
0.102113
0.114481
0.0982927
0.0590873
0.251038
0.380583
0.454967
0.330317
0.224119
0.247499
0.266713
-0.0110706
0.0137854
0.000987895
0.0405881
0.0329194
-0.0371295
-0.0405852
-0.0370489
-0.0297882
-0.0209468
-0.036617
-0.0417465
-0.0326783
-0.0373041
-0.0399481
-0.0433889
0.499286
0.492725
0.494368
0.488205
0.486933
0.501364
0.505677
0.507622
0.513172
0.515618
0.505416
0.511055
0.515082
-0.0109332
-0.0339188
-0.0375206
-0.0280366
-0.03035
-0.0279558
-0.0294484
0.123031
0.0539394
0.057863
0.0104409
-0.121659
-0.0636645
0.491136
0.48988
0.479334
0.720593
0.569844
0.490511
0.587536
0.693256
0.275618
0.472482
0.307489
0.888078
0.784549
0.930901
0.54198
0.245098
0.408617
0.451658
0.264977
0.340511
0.324497
0.213511
0.244289
0.282207
0.381183
0.265181
0.241907
-0.00146804
0.189085
0.30124
0.283074
0.407736
0.468405
0.265988
0.185729
0.140808
0.605616
0.625071
0.638089
0.611007
0.63218
0.580486
0.572561
0.588004
0.595923
0.590535
-0.746493
-0.45296
-1.39955
-0.721626
-0.266533
0.533573
0.505117
0.76895
0.645689
0.682282
0.667192
0.625901
0.595645
0.619585
0.642596
0.340985
0.451727
0.426914
0.432557
0.335068
0.265439
0.563287
0.560203
0.593453
0.616709
0.588682
0.618431
0.510799
0.510527
0.509975
0.506208
0.504472
0.506844
0.0591065
0.026789
0.0661731
0.0486712
0.0256504
0.0134573
-0.00903813
-0.0189675
-0.0261615
-0.0258516
-0.0117334
-0.00766003
0.171151
0.108738
0.0292863
0.0582375
-0.00246753
-0.0708592
-0.0898539
0.0153245
0.111384
0.101591
0.404964
0.654721
0.474722
0.642203
0.484651
0.540513
0.467858
0.459252
0.484215
0.379224
0.459628
0.248469
-0.259526
-0.16856
0.793716
0.804763
0.580626
0.405109
0.173157
0.351378
0.541362
0.471684
0.507178
0.576109
0.563406
0.0281596
0.0861793
0.372017
0.59883
0.239987
0.231067
0.224544
0.408477
0.326914
)
;

boundaryField
{
    wall-4
    {
        type            zeroGradient;
    }
    velocity-inlet-5
    {
        type            zeroGradient;
    }
    velocity-inlet-6
    {
        type            zeroGradient;
    }
    pressure-outlet-7
    {
        type            fixedValue;
        value           uniform 0;
    }
    wall-8
    {
        type            zeroGradient;
    }
    frontAndBackPlanes
    {
        type            empty;
    }
}


// ************************************************************************* //
