/*--------------------------------*- C++ -*----------------------------------*\
| =========                 |                                                 |
| \\      /  F ield         | OpenFOAM: The Open Source CFD Toolbox           |
|  \\    /   O peration     | Version:  4.0                                   |
|   \\  /    A nd           | Web:      www.OpenFOAM.org                      |
|    \\/     M anipulation  |                                                 |
\*---------------------------------------------------------------------------*/
FoamFile
{
    version     2.0;
    format      ascii;
    class       volScalarField;
    location    "41";
    object      p;
}
// * * * * * * * * * * * * * * * * * * * * * * * * * * * * * * * * * * * * * //

dimensions      [0 2 -2 0 0 0 0];

internalField   nonuniform List<scalar> 
918
(
0.575884
1.2265
0.00501167
0.575243
-0.00947186
1.19355
-0.480204
0.733141
0.556038
-0.0743872
-0.0100191
0.551819
1.05405
0.820128
-1.10527
0.01097
0.683026
-0.359003
0.555078
-0.00442189
0.769459
0.562618
0.565648
0.556234
0.620263
0.800183
0.934792
0.0190398
0.00152445
-0.00132975
-0.00978594
-0.0351755
-0.0276516
1.0772
1.12828
1.15095
0.524266
0.351051
-0.343812
-0.411543
-0.404049
-0.524173
0.72632
0.726472
-0.159887
0.73558
0.743112
0.543206
0.555399
0.5563
0.557376
0.556332
0.557724
0.434537
-0.0787995
-0.110412
-0.0548527
-0.0464508
0.0844517
-0.00858039
-0.0109492
-0.00959357
-0.0138044
0.474903
0.547431
0.544579
0.55692
0.565749
1.16605
1.13798
1.16411
1.07772
1.09426
1.03205
1.00464
0.840909
0.862317
0.804676
0.793514
-1.54293
-2.50514
-0.509585
-0.255753
-0.0078247
0.0126201
0.0190611
0.674867
0.673346
0.684612
0.695526
1.1046
-0.356246
-0.470752
0.555208
0.554006
0.562385
0.56308
0.559095
0.558188
-0.00574645
-0.00681943
-0.00711499
-0.00528229
-0.011163
0.758644
0.756293
0.556773
0.55379
0.572715
0.593695
0.585437
0.304531
0.623859
0.636566
0.623756
0.790767
0.784606
0.793591
0.908338
0.871321
0.972121
0.995366
0.0147557
0.00380044
-0.00131966
-0.0106601
-0.00419097
0.520191
0.512903
0.539291
0.527626
0.530076
0.266856
0.131919
0.436532
0.461509
-0.257071
-0.316932
-0.412205
-0.433721
-0.547217
0.622218
0.716695
0.715268
-0.178452
-0.103499
-0.233362
-0.0306342
-0.0906734
0.533598
0.540509
0.535556
0.550982
0.545478
0.547429
0.559647
0.556724
0.558282
0.497302
0.62126
0.36061
0.325661
-0.218137
-0.12848
-0.220632
-0.0327557
-0.0280496
0.0990006
0.124055
0.0718539
0.0620409
-0.0217012
-0.0148976
-0.0171587
-0.0128565
-0.0116675
0.467903
0.457107
0.487256
0.494595
0.537488
0.538668
0.542021
0.540487
0.955503
0.977789
0.985322
0.959183
-3.50614
-6.3092
0.073376
0.212046
-0.000178489
-0.00355929
0.00385822
-0.00104758
0.00259462
-0.000757402
0.0217078
0.0243397
0.0268863
0.0345902
0.661881
0.661584
1.02406
1.02545
1.00498
0.9557
0.543308
0.545427
0.550964
0.546823
-0.011317
-0.00826891
-0.0104331
0.744177
0.75211
0.750093
0.267364
0.180202
0.35383
0.381904
0.651951
0.64004
0.650141
0.684564
0.72059
1.00274
1.02095
1.01928
1.02768
1.07178
1.08824
1.05346
0.500206
0.509871
0.504991
0.54248
0.540189
0.541127
0.536676
0.538136
0.535964
-0.0200279
-0.403599
0.510476
0.528943
0.510189
0.515985
0.702181
0.779815
0.697254
0.707316
0.70518
0.0353226
-0.0219257
0.281702
0.248078
0.409147
0.444697
0.424107
0.926544
0.887203
0.937158
0.910614
0.872052
0.897762
-0.355155
-1.86812
-0.979771
0.566026
0.377869
0.465915
0.0447808
0.0222667
0.0309846
1.01871
1.0956
0.677006
0.845958
0.85278
0.759257
0.790181
0.844225
0.76965
0.804453
0.839753
0.821877
0.57876
0.522529
0.533519
0.850117
0.906844
0.153018
0.0966122
0.0519276
0.143023
0.200935
0.174407
1.05794
0.962957
1.035
0.553541
0.554241
0.0109967
0.0117354
0.55841
0.558454
-4.34508e-05
0.00425057
0.449085
-0.814779
0.138898
0.546891
0.537079
0.554047
-0.0578235
0.389041
-0.00839933
0.0832782
0.022338
0.549895
0.485462
0.445924
0.0201463
-0.00820306
-0.00521224
-0.185183
0.551213
0.549524
0.553514
0.554486
0.55515
0.00378879
0.00713797
0.00577524
-0.00416637
-0.000600047
-0.00294887
0.518497
0.536285
-0.14075
0.553655
0.55578
0.5556
0.548794
0.554454
0.552685
0.00214737
-0.00595784
-0.0121007
0.251285
0.375456
0.694863
0.787665
0.662839
0.435785
0.197455
0.594837
0.660236
0.563175
0.720481
0.710531
0.728755
0.204164
0.055047
0.211694
0.15275
0.54476
0.543445
0.535348
0.532403
0.548908
0.547024
0.551574
0.54858
0.551524
0.552918
-0.0156864
-0.0392369
-0.0541848
-0.119026
0.345436
0.605943
0.285099
0.315342
0.176107
-0.00562058
-0.00834936
-0.00875139
-0.0136175
0.0329119
0.00748796
0.0748448
0.0757688
0.0452476
0.0199115
0.0244094
0.0130144
0.0145788
0.543159
0.541411
0.54783
0.556412
0.494789
0.498567
0.464435
0.484576
0.470166
0.410955
0.44518
0.420689
0.0120197
0.0254785
0.00948682
0.00148195
0.0127475
-0.00261095
0.00218403
0.00119181
0.00740425
-0.000200231
-0.00397429
-0.00793343
-0.144068
-0.257478
1.01039
0.944122
0.154113
0.540409
0.546828
0.543613
0.54842
0.551548
0.552391
0.550135
0.546702
0.536789
0.538481
0.535022
0.535728
-0.0776189
-0.214178
-0.0419098
-0.111451
0.160789
0.643373
0.387351
0.326663
0.321034
0.544033
0.952066
0.744717
0.731973
0.752465
-0.319505
0.0767811
-0.252899
0.36721
0.189029
0.692428
0.742811
0.765737
0.712525
0.6643
-0.0899915
0.572962
-0.0347409
0.0128831
0.208505
0.095386
0.733142
0.694208
0.698827
0.717593
0.736503
0.700097
0.68249
0.677372
0.713317
0.716972
0.521103
0.282632
0.235694
0.197225
0.675864
0.559935
0.615787
0.527018
0.539779
0.542513
0.541114
0.523246
0.530668
0.526328
0.532353
0.535668
0.544626
0.545002
0.540401
0.542565
-0.0208627
-0.0241772
-0.000252744
-0.107953
-0.0988438
-0.157974
-0.037089
0.104896
0.0677263
0.262242
0.367937
0.0802753
-0.0352731
-0.00617583
0.0295878
0.206586
0.231673
0.107971
0.195633
0.184201
0.168638
0.269419
0.274774
0.00799102
0.00304692
0.00279427
-0.00047288
0.0535923
0.125156
0.135366
0.0262535
0.0209678
-0.00974094
-0.0105114
0.00996774
0.00652461
0.00885276
0.0470424
-0.0316596
0.00204882
0.0188375
0.0284025
0.0240918
0.0191547
0.535764
0.537849
0.537552
0.545412
0.56264
0.578402
0.536419
0.516506
0.507503
0.510474
0.484171
0.494243
0.490079
0.503631
0.523755
0.532806
0.530539
0.533174
0.516153
0.517725
0.504654
0.508372
0.484046
0.465592
0.454093
-0.0226521
0.0248864
0.012217
-0.0198208
0.0130196
-0.00447347
0.0204074
0.0349802
0.0205923
0.01875
0.0116054
0.00419571
0.00583356
-0.0497035
0.0326057
-0.158733
-0.191944
-0.260566
0.915039
1.03501
0.837451
0.613176
0.627738
0.86676
0.953695
0.575017
0.76126
0.784944
0.596186
0.865805
0.545207
0.544816
0.542419
0.541897
0.543128
0.0121925
0.113454
0.121187
0.176872
0.292155
0.40548
0.327824
0.205927
0.338806
0.3426
0.638453
0.652282
0.605083
0.627403
0.627617
0.45116
0.52876
0.582129
0.537037
0.585371
0.6071
0.566126
0.59687
0.544881
0.500895
0.497922
0.446372
0.468406
0.445322
0.426813
0.534895
0.512869
0.523
0.513604
0.532993
0.556838
0.553654
0.585038
0.596252
0.517356
0.475032
0.485022
0.513821
0.475146
0.489475
0.505115
0.242419
0.141483
0.227256
-0.0625926
0.0170454
0.00212352
-0.0449922
0.000916366
0.286492
-0.409979
-0.383662
-1.01594
0.513027
0.981838
0.685535
0.658298
0.733116
0.712145
0.716397
0.7389
0.744538
0.666525
0.684189
0.687816
0.647856
0.672003
0.694521
0.691913
0.544208
0.414981
0.408589
0.364509
0.236593
0.272158
0.474885
0.396631
0.321855
0.324349
0.487033
0.374187
0.441461
0.480206
0.41183
0.366362
0.571524
0.636436
0.626026
0.600486
0.519082
0.533651
0.558206
0.594049
0.620759
0.652979
0.532056
0.537874
0.539129
0.536666
0.533869
0.536807
0.536936
0.53947
0.540267
0.543196
0.542199
-0.00795874
0.00283593
-0.0106905
-0.0169027
0.0121404
0.00794172
0.0522643
0.0377685
0.0225036
0.029667
0.00322403
-0.00162059
0.00431706
0.013292
0.129563
0.142806
0.126092
0.0867417
0.275742
0.406251
0.476817
0.355167
0.247703
0.271228
0.294323
0.0189406
0.0465558
0.032312
0.0741004
0.0656911
-0.000275024
-0.0069507
-0.00246968
0.00256956
0.015341
-0.00478852
-0.00581488
0.000993674
-0.00322024
-0.00685724
-0.00923408
0.518694
0.512235
0.513702
0.507689
0.506488
0.520493
0.524723
0.526556
0.53188
0.533934
0.524415
0.529907
0.533518
0.0182959
-0.00162109
-0.00850543
0.00561188
0.00465789
0.00482134
0.00256226
0.140834
0.0714445
0.0767206
0.0303628
-0.0975972
-0.0400775
0.503311
0.500472
0.495815
0.734331
0.584695
0.503029
0.598289
0.704292
0.290735
0.489767
0.32284
0.905921
0.798901
0.945318
0.560766
0.256867
0.413406
0.463972
0.271221
0.343618
0.34821
0.235675
0.267374
0.300511
0.402051
0.278632
0.253273
0.0107466
0.198371
0.315596
0.296446
0.425047
0.487239
0.275417
0.195675
0.151383
0.629648
0.64807
0.666305
0.637528
0.661291
0.59473
0.583284
0.601108
0.610234
0.606448
-0.743682
-0.451194
-1.39525
-0.710008
-0.259284
0.543779
0.50685
0.785772
0.67039
0.732344
0.716683
0.67404
0.639928
0.655229
0.686004
0.380234
0.492107
0.466617
0.47167
0.371944
0.304054
0.606402
0.600238
0.636233
0.66024
0.627339
0.659994
0.529845
0.52948
0.52908
0.525468
0.52375
0.525985
0.089732
0.0586555
0.093364
0.0745985
0.0525711
0.0407592
0.0224761
0.0136031
0.00717464
0.00783238
0.0200436
0.0231959
0.18183
0.123242
0.047214
0.0757059
0.0161126
-0.050211
-0.0686519
0.033171
0.12624
0.116399
0.422916
0.675078
0.495868
0.665343
0.504347
0.560484
0.486541
0.47973
0.506352
0.393757
0.473373
0.24517
-0.260383
-0.168321
0.801264
0.818467
0.601125
0.41693
0.186955
0.374202
0.569196
0.503889
0.542466
0.611626
0.602485
0.0282243
0.0936106
0.357563
0.584888
0.248055
0.240481
0.23478
0.410393
0.333586
)
;

boundaryField
{
    wall-4
    {
        type            zeroGradient;
    }
    velocity-inlet-5
    {
        type            zeroGradient;
    }
    velocity-inlet-6
    {
        type            zeroGradient;
    }
    pressure-outlet-7
    {
        type            fixedValue;
        value           uniform 0;
    }
    wall-8
    {
        type            zeroGradient;
    }
    frontAndBackPlanes
    {
        type            empty;
    }
}


// ************************************************************************* //
