/*--------------------------------*- C++ -*----------------------------------*\
| =========                 |                                                 |
| \\      /  F ield         | OpenFOAM: The Open Source CFD Toolbox           |
|  \\    /   O peration     | Version:  4.0                                   |
|   \\  /    A nd           | Web:      www.OpenFOAM.org                      |
|    \\/     M anipulation  |                                                 |
\*---------------------------------------------------------------------------*/
FoamFile
{
    version     2.0;
    format      ascii;
    class       volVectorField;
    location    "41";
    object      U;
}
// * * * * * * * * * * * * * * * * * * * * * * * * * * * * * * * * * * * * * //

dimensions      [0 1 -1 0 0 0 0];

internalField   nonuniform List<vector> 
918
(
(0.985163 -0.000502658 0)
(0.00501144 2.96625 0)
(0.000893762 0.817947 0)
(0.979703 0.00214794 0)
(-0.0144432 2.02932 3.23831e-20)
(-0.00704475 2.94879 -2.55718e-18)
(0.823873 1.16319 4.22924e-19)
(0.272156 0.129343 -1.62865e-20)
(0.999908 -0.000281784 0)
(0.0606944 0.809985 0)
(0.0180394 0.619498 0)
(0.734862 -0.0154845 0)
(0.0111276 2.93036 0)
(0.00227013 2.79518 0)
(-0.0176153 3.15562 7.60056e-19)
(-0.0156855 1.86913 -1.10786e-20)
(0.33759 0.0341789 1.06682e-18)
(0.19026 1.1744 2.93289e-19)
(0.96277 0.0050196 0)
(-0.00135781 0.595239 0)
(0.0590168 0.17335 -7.7164e-19)
(1.00198 -0.00498066 0)
(1.00022 -0.0097911 0)
(0.975727 -0.00644012 0)
(0.585241 -0.0376792 0)
(0.0160049 2.63911 0)
(-0.0149761 2.91007 9.46732e-19)
(0.00137022 0.893725 0)
(0.0089661 1.1179 0)
(-0.00252857 0.870136 0)
(-0.0151526 2.60942 0)
(0.000792737 2.08794 -2.58451e-20)
(-0.0107226 1.84882 0)
(-0.0206026 2.9876 -9.21838e-23)
(-0.0166891 3.00529 1.98737e-18)
(0.0021 3.00018 0)
(0.870746 -0.00942218 0)
(0.404123 0.937882 1.91341e-19)
(0.802523 1.18098 -4.60702e-19)
(0.948176 1.01896 5.08423e-19)
(0.673517 1.27398 -9.71535e-20)
(0.672335 1.26076 5.6162e-19)
(0.312037 0.207795 1.58889e-20)
(0.286611 0.100064 0)
(1.12593 0.54797 0)
(0.277746 0.199765 7.26222e-20)
(0.24212 0.130608 -7.53606e-20)
(0.919777 -0.00745302 0)
(1.00027 0.000151502 0)
(0.99991 0.000334369 0)
(1.00363 -0.00776927 0)
(1.00096 -0.000930105 0)
(1.00017 2.97449e-05 0)
(0.0775067 1.81284 -8.31247e-19)
(0.0273622 0.990765 0)
(0.0939691 0.873078 0)
(0.0129897 0.940372 0)
(0.0339709 0.751571 0)
(0.0212071 1.99714 0)
(0.015567 0.830189 0)
(0.0119328 0.645736 0)
(0.0157318 0.811234 0)
(0.0047007 0.595292 0)
(0.838425 -0.0157391 0)
(0.846964 0.02891 0)
(0.767731 -0.00411813 0)
(0.817378 0.038976 0)
(0.703201 -0.0187106 0)
(0.0146878 3.00041 9.49128e-19)
(0.0114953 3.00804 0)
(0.00610965 3.00277 0)
(0.0135455 2.99737 1.07867e-23)
(0.00796686 2.95847 -1.41064e-18)
(0.0145034 2.98203 0)
(0.0108747 2.90355 0)
(0.0243196 2.93067 2.18819e-24)
(0.00459843 2.82527 0)
(0.0308178 2.91642 0)
(-0.00504617 2.74505 0)
(0.308441 3.5525 0)
(-0.131848 3.63397 0)
(0.139597 3.24614 -7.07318e-19)
(-0.0127797 2.98177 0)
(-0.0108965 2.02888 0)
(-0.00680668 2.15289 1.09265e-20)
(-0.000971733 1.89289 -2.09657e-20)
(0.43671 0.142869 -3.69119e-19)
(0.337877 0.018415 -3.55919e-19)
(0.418024 0.159489 -1.11171e-18)
(0.322913 0.0515229 -7.33491e-19)
(0.222357 0.961314 0)
(0.272411 1.31957 -3.54679e-19)
(0.371274 1.25898 5.93953e-19)
(0.987471 0.00854988 0)
(0.941928 0.00584561 0)
(1.0003 0.000578119 0)
(1.00286 0.00930571 0)
(1.00302 0.00845991 -2.83962e-18)
(0.991913 0.00970077 2.1444e-18)
(-0.0164165 0.801769 0)
(-0.00178587 0.587875 0)
(-0.0128301 0.934511 0)
(-0.000883946 0.806905 0)
(-0.0134663 0.587285 0)
(0.0943802 0.176802 2.38509e-19)
(0.151739 0.153368 0)
(0.99354 -0.00838079 0)
(0.954424 -0.00651786 0)
(0.765824 0.0461627 0)
(0.701501 0.0567548 0)
(0.663805 -0.0307379 0)
(0.961891 -0.00881842 0)
(0.618027 0.076258 0)
(0.445326 -0.0113513 1.57438e-18)
(-0.0368479 2.86278 7.1612e-19)
(0.0414985 2.9095 0)
(0.0544455 2.88531 0)
(-0.00467644 2.69965 0)
(-0.0130325 2.98525 8.98744e-19)
(-0.0179602 2.89519 0)
(-0.0153882 2.98806 -2.78189e-18)
(-0.0133045 2.9252 9.51717e-19)
(0.0312343 1.33843 0)
(0.0521849 1.38694 0)
(-0.00326903 2.11777 1.98767e-22)
(-0.00275191 2.06927 0)
(-0.0227238 1.85283 0)
(0.938029 -0.00765309 0)
(0.856437 -0.00968063 0)
(0.863375 0.00625326 0)
(0.949221 -0.00803779 0)
(0.883686 -0.00811296 0)
(0.51639 1.13166 -2.4108e-19)
(0.565872 1.18335 0)
(0.367849 0.881849 3.52401e-20)
(0.310032 0.740801 0)
(0.907977 1.05797 -1.38262e-19)
(1.01726 0.86006 2.74292e-19)
(0.364899 1.36973 0)
(0.528974 1.33633 0)
(0.543109 1.2902 0)
(0.115817 0.180201 -3.06975e-19)
(0.34532 0.199778 0)
(0.310963 0.0930358 2.07578e-19)
(0.988198 0.915752 0)
(1.05342 0.765469 0)
(1.07737 0.70559 -2.05023e-19)
(1.10722 0.608609 0)
(1.15637 0.393416 5.47005e-20)
(0.957537 -0.00882539 0)
(0.962399 -0.0101008 0)
(0.901521 -0.00799181 0)
(0.984173 -0.00917264 0)
(0.974653 -0.00937606 0)
(0.937064 -0.00636046 0)
(1.00019 0.00233683 0)
(1.0009 0.00140272 0)
(0.99991 0.000854504 0)
(0.0350125 2.06553 4.58302e-19)
(0.120827 1.75509 0)
(0.0160721 2.18141 7.16947e-19)
(0.0516805 1.8671 -6.06419e-19)
(0.106304 1.18121 -2.39633e-19)
(0.0464226 1.06727 0)
(0.141917 1.0255 0)
(0.00588654 0.895722 0)
(0.0183011 0.703441 0)
(-0.00516795 2.23438 -1.27492e-21)
(0.0268323 2.00399 0)
(-0.00662687 2.23707 -5.83148e-20)
(0.021187 2.00204 1.04586e-19)
(0.00395985 0.871179 0)
(0.0101533 0.849912 0)
(0.00960434 0.669694 0)
(-0.00521666 0.802516 0)
(0.00306278 0.583265 0)
(0.935749 0.00898526 0)
(0.845974 -0.015242 0)
(0.925661 -0.000171921 0)
(0.840397 -0.0127438 0)
(0.812065 0.00102901 0)
(0.901469 0.0200285 0)
(0.877677 0.0241917 0)
(0.788739 -0.00095747 0)
(0.00562127 3.06471 -8.90053e-21)
(0.0166268 3.05788 0)
(0.0146606 2.96905 0)
(0.00858703 2.87621 0)
(0.925599 3.96909 0)
(1.24023 3.30168 9.29474e-19)
(0.0699401 3.07394 0)
(-0.0284919 2.90545 0)
(0.0334306 1.43215 0)
(-0.0111392 1.74965 0)
(0.0255884 1.60645 0)
(-0.0277711 2.56396 -4.03511e-22)
(-0.0152047 2.25184 0)
(-0.0210293 2.40257 0)
(0.0157763 1.9304 -9.13044e-22)
(-0.0057853 2.21888 2.01761e-20)
(-0.0137682 2.1801 2.13161e-20)
(0.00984404 1.90707 0)
(0.465339 0.12087 5.54879e-19)
(0.366154 0.00560013 -5.44964e-19)
(0.259847 1.57552 0)
(0.270505 0.736097 -3.20911e-19)
(0.177606 1.66108 -1.07696e-18)
(0.227459 1.20282 1.07961e-18)
(0.902218 0.00649784 0)
(0.967492 0.0110535 0)
(0.974618 0.010788 0)
(0.923432 0.00649583 0)
(-0.00615089 0.788137 0)
(-0.0139194 0.791493 0)
(-0.0104988 0.585065 0)
(0.239217 0.194825 6.69522e-19)
(0.200087 0.182474 -7.93278e-19)
(0.204419 0.141334 0)
(1.08492 0.0819973 2.99236e-20)
(1.0678 0.0369189 0)
(1.004 0.0383494 0)
(0.900034 -0.00721382 0)
(0.497409 0.10118 0)
(0.54188 0.0848552 -2.51741e-18)
(0.399628 0.00249599 9.42694e-19)
(0.00901374 2.98081 7.61948e-19)
(-0.0330814 2.86568 4.64545e-20)
(0.00368866 3.05021 -1.88083e-20)
(0.020162 3.04342 6.69088e-19)
(-0.0150115 2.99657 3.12191e-20)
(-0.012974 2.94948 -1.25548e-22)
(-0.0172703 3.01193 -5.76404e-19)
(0.0148727 3.02378 4.17017e-19)
(0.00737037 3.03681 -6.61923e-19)
(0.932741 -0.00175458 0)
(0.938622 -0.0036004 0)
(0.844482 -0.00925624 0)
(0.956707 0.0117558 0)
(0.942998 0.0130107 0)
(0.88175 0.00605148 0)
(0.917979 0.0164763 0)
(0.926464 0.0147176 0)
(0.838601 0.00360355 0)
(0.719949 1.41064 2.84169e-20)
(0.753573 1.51987 0)
(0.18677 0.324538 7.33612e-20)
(0.218937 0.658228 5.93133e-19)
(0.259615 0.719027 -3.45171e-19)
(0.265142 0.533398 6.86391e-19)
(0.337075 0.790114 1.61376e-18)
(0.134193 0.221455 3.79215e-19)
(0.391986 0.179049 7.78366e-19)
(0.37214 0.192728 2.02808e-19)
(0.320198 0.0729558 3.87218e-19)
(1.14738 0.451717 2.4991e-20)
(1.16599 0.248417 1.96188e-20)
(0.00710445 2.23028 2.82292e-19)
(0.0472559 1.93519 0)
(0.964803 0.0283616 0)
(0.939058 0.0131651 0)
(0.863506 -0.0185899 0)
(0.0112329 3.07445 0)
(0.0197242 2.944 1.23081e-18)
(0.0164603 2.95636 0)
(0.00629732 2.85067 -1.22107e-18)
(0.00617388 3.09084 2.99244e-19)
(0.00727239 3.08255 0)
(0.786714 1.82266 -1.57131e-19)
(1.248 2.50087 3.9893e-19)
(0.768931 1.96246 -1.23018e-18)
(0.0202343 2.98155 -6.61646e-19)
(0.0358943 3.0018 0)
(-0.033639 2.87876 0)
(-0.00490413 2.21269 -1.32591e-20)
(-0.005315 2.23382 -4.25441e-20)
(0.0152825 1.96092 -9.718e-21)
(0.275945 1.38324 1.04421e-18)
(0.229166 0.524039 -7.16153e-19)
(0.0633041 1.98929 7.94199e-19)
(0.13596 1.87691 -9.40677e-19)
(0.180497 1.49607 9.19409e-20)
(0.00166882 3.11897 -1.87453e-18)
(0.0154686 3.11823 2.01359e-18)
(-0.00892933 2.98122 8.29387e-19)
(-0.0036393 2.97758 -7.86927e-19)
(-0.0210744 2.88137 -8.44709e-19)
(0.00867755 3.10003 -2.22887e-18)
(0.00241334 3.10575 2.18082e-18)
(0.27367 0.681592 0)
(0.238265 0.671963 -1.22165e-18)
(0.0956023 0.22255 5.41633e-19)
(0.351384 0.916084 1.1263e-18)
(0.189606 0.266411 -1.73658e-18)
(1.16534 0.168767 7.65896e-20)
(1.16771 0.302164 0)
(1.15346 0.117774 -2.30528e-20)
(-0.00246859 2.24788 -1.93635e-21)
(0.0015445 2.23893 0)
(0.0332719 1.97008 0)
(0.33982 1.29144 -3.75866e-19)
(0.36944 1.12846 -8.11897e-19)
(0.203161 0.365387 1.44617e-18)
(1.00587 -0.0108594 0)
(1.00766 -0.00765298 5.24142e-19)
(0.0285938 1.31343 0)
(0.00253061 1.27535 0)
(1.00221 0.00350323 1.80096e-21)
(1.00366 0.00945069 1.06964e-18)
(-0.020344 2.54636 5.10965e-22)
(-0.028195 2.58852 0)
(0.0359619 3.17876 4.45725e-19)
(0.395424 3.49128 0)
(1.1535 0.647925 -7.46522e-20)
(1.01294 0.0130534 -2.15269e-21)
(1.02127 -0.0104028 0)
(1.00169 0.000109952 7.54213e-23)
(0.101357 1.35778 0)
(0.146586 2.57498 0)
(0.0238488 1.29282 0)
(0.00205616 2.63042 5.90101e-20)
(-0.0229994 2.58962 2.67796e-20)
(1.00139 0.0287244 2.44367e-21)
(1.06156 0.00340335 0)
(1.09442 0.0228157 0)
(-0.0115746 1.7752 0)
(-0.0268209 2.59227 0)
(-0.000657019 1.28409 0)
(0.294012 1.47077 -1.44279e-19)
(1.01127 -0.00965363 0)
(1.00939 -0.0149354 0)
(1.00237 0.00072827 6.69752e-19)
(1.00548 -0.00482304 -7.87206e-19)
(1.00118 -0.000995345 0)
(0.00374584 1.49316 0)
(0.0253539 1.38005 0)
(0.0288707 1.45467 0)
(0.00379926 1.27177 0)
(0.0114375 1.23813 0)
(0.00718426 1.21548 0)
(1.03458 -0.00641058 0)
(1.02048 0.0157014 -9.13433e-22)
(0.798759 1.26527 2.34058e-19)
(1.00223 0.000283718 -6.67172e-19)
(1.00406 0.00524747 7.80881e-19)
(1.00117 0.00206331 0)
(1.0128 0.0102763 6.64084e-19)
(1.00802 0.00829537 -8.04206e-19)
(1.00857 0.0146865 0)
(-0.0297905 2.61956 0)
(-0.0304085 2.59784 -8.74182e-21)
(-0.0299425 2.61205 7.38195e-21)
(1.22698 0.256322 6.47424e-19)
(1.15623 0.0837517 0)
(0.0437399 3.07718 -9.76558e-19)
(0.0656007 2.85374 -7.09835e-20)
(0.141843 3.19293 1.48901e-18)
(0.136663 3.22195 -2.22318e-19)
(0.134978 3.23423 0)
(0.0204781 3.13768 2.53241e-19)
(0.076745 3.16034 9.63733e-19)
(0.0692824 3.18645 -4.76918e-19)
(0.0230729 3.12952 0)
(0.640168 0.289127 0)
(0.565751 0.341333 0)
(1.11931 0.684119 1.84392e-19)
(1.11471 0.811361 -1.85112e-19)
(1.18144 0.568559 0)
(1.21228 0.504262 0)
(1.01614 0.0132851 -1.23816e-18)
(1.01498 0.0142501 1.55421e-18)
(1.02522 -0.00991623 0)
(1.02329 -0.0119057 0)
(1.00644 0.00255567 0)
(1.01042 0.00369144 0)
(1.00461 0.00181498 0)
(1.00978 0.00616842 0)
(1.00786 0.00596978 0)
(1.00451 0.00466623 0)
(0.0893511 1.35419 0)
(0.0840713 1.3266 0)
(0.122444 1.39219 0)
(0.13557 1.40244 0)
(0.146624 2.59919 0)
(0.186604 2.66631 -4.48495e-19)
(0.102084 2.65615 0)
(0.0876687 2.65996 2.22417e-19)
(0.0412809 2.68337 -1.92693e-19)
(0.0299533 1.30892 0)
(0.0180928 1.24427 0)
(0.0233064 1.32317 0)
(0.0284519 1.26309 0)
(0.00420378 1.98266 -2.22321e-20)
(-0.021118 2.61755 9.64417e-21)
(-0.00801379 2.67341 4.71708e-20)
(-0.0183173 2.69189 0)
(-0.0253217 2.62344 -6.15274e-20)
(-0.0250254 2.61822 -2.52599e-20)
(0.0138248 1.9821 1.92819e-20)
(-0.00884876 2.40705 -1.29418e-20)
(-0.0133285 2.42676 -5.34893e-20)
(1.01125 0.0365548 1.26186e-18)
(1.00707 0.0162004 -1.55842e-18)
(1.00256 0.0431401 -1.26231e-18)
(0.980913 0.0223871 1.60857e-18)
(1.06289 0.00726597 0)
(1.04841 -0.00870735 0)
(1.09192 0.0326992 0)
(1.07256 0.0115709 0)
(1.07037 -0.000561151 0)
(1.13699 0.0795014 0)
(1.10861 0.0420328 0)
(1.11162 0.0301488 0)
(-0.0179829 2.44471 -2.12096e-21)
(-0.0229792 2.0101 0)
(-0.0133475 2.22662 0)
(-0.0258785 2.61307 1.04724e-21)
(-0.0232672 2.62032 -4.53007e-22)
(-0.00130182 1.57222 -2.39288e-22)
(0.00889007 1.51604 2.41175e-22)
(-0.0011871 1.38602 0)
(0.00625693 1.39735 0)
(0.0103609 1.39422 0)
(-0.00598536 1.28738 0)
(0.00727731 1.22122 0)
(0.378353 1.48589 2.29279e-19)
(0.417608 1.49022 1.29864e-19)
(0.596605 2.44671 -2.43905e-19)
(0.401784 2.54129 7.20487e-19)
(0.350725 2.06568 7.94465e-20)
(1.02096 -0.00820104 0)
(1.01545 -0.00979698 0)
(1.01489 -0.0155313 0)
(1.00745 -0.00118787 0)
(1.00493 -0.000954981 0)
(1.00776 -0.00476169 0)
(1.00924 -0.00371324 0)
(1.01417 -0.00448234 0)
(1.02119 0.0160812 1.21242e-18)
(1.01801 0.0157291 -1.55392e-18)
(1.02163 0.0180255 -1.22093e-18)
(1.01952 0.0167044 1.52867e-18)
(0.765244 1.31435 0)
(0.700888 1.36667 2.15277e-19)
(0.87478 1.211 7.01504e-20)
(0.917695 1.16298 -9.32991e-20)
(1.15714 2.60874 3.16241e-19)
(0.804028 0.111139 6.14698e-19)
(1.15929 0.104004 0)
(1.20487 0.186906 -5.20149e-19)
(1.18853 0.150012 -2.19849e-20)
(1.00396 0.146901 0)
(0.13574 2.96075 5.73823e-19)
(0.112965 2.86637 -1.23674e-18)
(0.0234155 2.37275 8.34233e-19)
(0.0909625 -0.026998 -3.73119e-19)
(0.340207 3.42035 -1.97577e-19)
(0.194156 3.31296 0)
(0.237193 3.35496 2.57311e-19)
(0.245168 3.03398 -1.88379e-18)
(0.340055 3.19334 0)
(0.00673605 3.12094 4.89303e-20)
(0.0162319 3.12984 -5.75738e-19)
(0.014902 3.12589 8.47382e-19)
(0.0359276 3.13994 0)
(0.0344476 3.15063 0)
(1.21597 2.60796 0)
(0.541303 0.834864 -5.4664e-19)
(1.0395 0.987525 1.70386e-20)
(0.975891 1.06491 0)
(0.828549 0.968116 -1.22819e-19)
(1.06422 0.879388 2.86443e-20)
(0.364042 0.389835 -9.60899e-19)
(0.6858 0.316576 -2.146e-20)
(0.647314 0.229424 4.40625e-19)
(0.585856 0.372725 3.25844e-20)
(0.499713 0.339404 -1.31224e-18)
(0.657898 0.332704 0)
(0.703788 0.418588 7.48293e-19)
(0.711481 0.419729 0)
(0.621142 0.361292 0)
(0.586195 0.284373 0)
(0.803698 0.614522 4.43498e-19)
(1.22669 0.278361 -5.46864e-19)
(1.2238 0.413429 0)
(1.23348 0.354602 0)
(0.735636 0.186149 6.53534e-19)
(0.851032 0.535387 -4.07301e-19)
(0.747503 0.507002 7.21763e-19)
(0.951628 0.424186 -7.9439e-19)
(1.01967 0.0147349 8.33463e-19)
(1.01783 0.014219 -8.38344e-19)
(1.01594 0.0155486 0)
(1.036 -0.00595033 0)
(1.02963 -0.00859978 -7.85781e-19)
(1.0276 -0.012139 7.78022e-19)
(1.02503 0.00990128 0)
(1.02364 0.0135246 0)
(1.01142 0.00406823 0)
(1.01427 0.00901371 0)
(1.01513 0.00395554 0)
(1.01423 0.00276684 0)
(0.0593886 1.33902 0)
(0.0626705 1.29685 0)
(0.144579 1.36668 -2.08856e-20)
(0.269679 1.46761 7.31168e-20)
(0.163123 1.43941 1.51453e-19)
(0.194078 1.44654 -2.4845e-19)
(0.165377 1.38969 0)
(0.131273 1.59336 -1.02718e-19)
(0.116035 1.56571 0)
(0.34876 2.01829 -1.15483e-19)
(0.345472 2.34983 6.50018e-19)
(0.18674 1.45057 8.95741e-20)
(0.262046 1.38136 1.15723e-20)
(0.197053 1.37017 -9.37143e-21)
(0.272526 1.32326 -1.28512e-19)
(0.240423 1.57676 0)
(0.261117 1.61651 1.32565e-19)
(0.0348523 2.26561 -4.34987e-20)
(0.0439625 2.67211 0)
(0.0673415 2.40302 1.66714e-19)
(0.0627396 2.42429 0)
(0.0710865 2.67308 -2.46295e-19)
(0.0512975 2.70202 0)
(0.0310724 1.40556 -3.54589e-21)
(0.0383527 1.45899 0)
(0.0317156 1.37679 0)
(0.0275028 1.37741 4.00062e-21)
(0.00137609 2.6581 -1.81952e-20)
(0.0305427 2.70158 2.213e-19)
(0.0123494 2.72756 1.54378e-21)
(0.0053864 1.82983 2.05042e-20)
(-0.00170264 1.67556 8.61624e-21)
(0.0232066 1.29417 0)
(0.0241895 1.22433 0)
(0.0495624 1.57006 1.68168e-20)
(0.0303837 1.44343 1.17053e-20)
(0.0394958 1.50862 -1.43906e-20)
(0.041281 1.59467 0)
(-0.0308087 2.28075 4.10589e-20)
(-0.0338206 2.5605 -1.67535e-20)
(-0.017271 2.45787 -2.91669e-21)
(-0.0041317 1.84804 -2.48557e-20)
(-0.0276296 2.50873 -8.47074e-21)
(-0.0228456 2.45077 4.23872e-20)
(1.0196 0.0207884 -8.28582e-19)
(1.01578 0.0263516 8.32057e-19)
(1.01495 0.0162969 0)
(1.01166 0.0687987 1.16908e-18)
(0.990688 0.0575903 -1.31148e-18)
(0.950649 0.0422763 1.46819e-18)
(1.01392 0.105748 -1.55918e-19)
(1.04225 -0.0060071 0)
(1.05035 -0.00183323 7.50998e-19)
(1.03859 -0.0100401 -7.52393e-19)
(1.06949 0.0409928 -4.4792e-20)
(1.06326 0.0224329 3.85242e-19)
(1.06271 0.0538536 0)
(1.0521 0.0482899 -1.38577e-19)
(1.03268 0.0410965 0)
(1.02603 0.0370699 0)
(1.02783 0.0128514 0)
(1.02426 0.0156696 0)
(1.03986 0.0310276 2.85184e-19)
(1.03926 0.0260526 -6.29556e-19)
(1.05037 0.0324367 -3.02449e-19)
(1.04869 0.0322268 -3.32876e-19)
(1.07009 0.0628622 6.52034e-19)
(1.09445 0.0502772 0)
(1.10242 0.0938204 0)
(-0.0269436 2.28916 2.88209e-20)
(-0.0207356 2.02945 -2.98857e-21)
(-0.0213307 2.03302 0)
(-0.0303722 2.45327 -2.87322e-20)
(-0.0217066 2.412 5.03822e-21)
(-0.0356449 2.48557 1.65824e-21)
(-0.0230103 2.63016 2.16341e-20)
(-0.0284275 2.57213 -2.22703e-21)
(-0.02275 2.52489 7.18024e-21)
(-0.0199695 2.62353 -8.53787e-21)
(-0.024077 2.62545 1.16145e-20)
(-0.0137861 1.48282 -2.10788e-22)
(0.005307 1.6188 4.18002e-21)
(0.365845 1.42817 -9.19434e-20)
(0.364551 1.36891 6.01548e-20)
(0.646383 1.41476 -2.08132e-19)
(0.515204 1.48062 -1.2661e-19)
(0.568964 1.45059 0)
(0.592313 2.42267 2.16045e-19)
(0.660152 2.41559 3.43929e-19)
(0.410413 2.51537 8.42368e-20)
(0.40346 2.54324 -6.50087e-19)
(0.511443 2.48832 6.3536e-19)
(0.551692 2.46048 0)
(0.48863 2.51553 -5.74344e-19)
(0.248648 2.59043 1.20141e-18)
(0.353597 2.56373 -8.17039e-20)
(0.284466 2.65208 -1.64788e-18)
(0.944101 2.38021 7.40374e-19)
(0.836243 2.38238 0)
(1.01098 0.000420527 2.71785e-20)
(1.01524 -0.00549795 -2.20651e-20)
(1.01764 -0.00363501 -4.03121e-19)
(1.01491 -0.000961391 4.04945e-19)
(1.01233 0.00104177 0)
(0.634327 1.28263 0)
(0.65407 1.18072 0)
(0.76003 1.09021 0)
(0.646933 1.14381 0)
(1.18662 2.62321 5.84172e-20)
(1.07461 2.36812 0)
(0.838742 2.18902 3.97646e-21)
(0.825377 2.44859 0)
(0.922511 2.53988 -4.41082e-19)
(0.957824 2.49585 2.93601e-19)
(0.81535 0.165796 0)
(0.779104 0.137254 1.67742e-19)
(0.923629 0.141277 9.75837e-19)
(0.839496 0.143581 -3.64609e-19)
(0.810721 0.0822661 -1.12339e-18)
(1.0771 0.228392 -9.47217e-19)
(0.994095 0.286274 -1.5577e-20)
(0.925303 0.285911 9.05085e-19)
(1.00198 0.217702 7.56972e-19)
(0.953176 0.184907 -1.29864e-18)
(0.917409 0.187176 1.62364e-19)
(0.952747 0.249181 -3.4786e-19)
(0.931047 0.212091 0)
(0.992041 0.180757 6.40954e-19)
(1.0426 0.182009 0)
(1.04039 0.207962 0)
(1.10623 0.116125 3.04162e-19)
(1.06636 0.170941 -1.41471e-20)
(1.07184 0.229551 -1.66247e-19)
(1.10397 0.198064 0)
(1.02272 0.04461 6.42804e-19)
(1.04101 0.0571713 8.02422e-19)
(1.03422 0.0434163 -6.37663e-19)
(1.04278 0.0636725 -5.37674e-19)
(1.0193 0.0714805 -8.22279e-19)
(0.98781 0.153695 0)
(0.99865 0.102041 0)
(0.967076 0.0647612 -5.22952e-19)
(0.916475 0.0878111 2.05412e-19)
(1.03795 0.101734 7.43539e-19)
(1.0676 0.119391 -8.7805e-19)
(1.07114 0.151153 7.83971e-19)
(1.02921 0.140144 0)
(1.07362 0.106571 0)
(1.05455 0.0884533 -3.5812e-19)
(1.04447 0.0935419 -6.08565e-19)
(0.579758 1.07604 1.46437e-19)
(0.613147 1.41048 -4.8048e-20)
(1.1573 2.74079 -2.36834e-19)
(1.22389 3.0816 3.37995e-21)
(1.24933 2.72247 -1.54189e-19)
(1.27938 2.70631 -2.02601e-20)
(1.20741 2.34618 -1.01473e-20)
(1.21111 2.9856 -1.00886e-19)
(1.23042 2.95084 2.46562e-19)
(1.21489 3.23505 -1.40581e-19)
(1.3757 2.96689 1.94424e-19)
(1.36626 2.88496 0)
(0.546558 0.842833 -5.11469e-20)
(0.135645 1.25305 5.86745e-19)
(0.533781 0.443581 6.20747e-19)
(0.372225 0.194868 6.84725e-19)
(0.525347 0.373236 7.41094e-19)
(0.546695 0.471508 -1.19077e-18)
(0.54806 0.472562 9.7252e-19)
(0.495419 0.392866 -3.74774e-19)
(0.415425 0.324626 8.4947e-19)
(0.739846 0.247587 -3.74034e-19)
(0.705174 0.276738 0)
(0.683857 0.199562 9.13871e-21)
(0.731395 0.508227 3.93906e-19)
(0.703368 0.479067 -1.43562e-18)
(0.615591 0.468666 1.51385e-20)
(0.625542 0.457897 0)
(0.677765 0.730283 4.14169e-19)
(0.83053 0.773126 4.25137e-19)
(0.7541 0.854745 -4.96555e-19)
(0.873566 0.807856 -1.70013e-19)
(0.90402 0.851525 -4.30435e-20)
(0.911785 0.851951 4.40766e-20)
(0.846963 0.644664 -7.36196e-19)
(0.92583 0.702979 1.57966e-19)
(0.980806 0.716911 0)
(0.972109 0.692561 -2.16967e-19)
(1.02301 0.322865 2.2947e-19)
(1.14148 0.292646 3.17821e-19)
(1.06425 0.262859 3.87434e-19)
(1.01149 0.35591 -4.60863e-19)
(1.05675 0.42027 0)
(1.10921 0.404815 0)
(0.915222 0.354662 6.38165e-21)
(0.841094 0.286765 0)
(0.876229 0.281963 4.25647e-19)
(0.907363 0.291654 -4.47503e-21)
(0.944817 0.426855 2.21579e-18)
(0.902279 0.487082 5.7342e-19)
(0.905676 0.450366 -6.07887e-19)
(0.82283 0.433814 6.51205e-19)
(0.805884 0.428764 3.90418e-19)
(0.776194 0.412841 -3.83668e-19)
(1.02724 -0.000512736 6.71609e-19)
(1.02001 -0.000136402 0)
(1.01849 0.000790107 4.37616e-19)
(1.02152 -0.00184745 -9.91376e-19)
(1.02229 0.00424862 4.81725e-19)
(1.02042 0.0111161 -1.00884e-18)
(1.02139 0.0105145 0)
(1.02068 0.0107947 -2.1018e-19)
(1.016 0.00763341 5.27267e-19)
(1.01673 0.0104014 -2.63071e-19)
(1.01743 0.00974585 1.93761e-19)
(0.0304977 1.31333 0)
(0.0344109 1.34943 0)
(0.0425061 1.317 0)
(0.0402295 1.27418 0)
(0.0704033 1.37675 1.86162e-20)
(0.0766197 1.34939 1.30788e-21)
(0.112535 1.50726 -3.04865e-20)
(0.0942683 1.35816 9.82529e-21)
(0.0345037 1.44826 -3.63248e-20)
(0.0380749 1.44098 2.83944e-20)
(0.0616226 1.36081 -8.07347e-21)
(0.0543611 1.36251 -4.40574e-22)
(0.0458768 1.33843 -2.64522e-22)
(0.0388544 1.35987 -3.35026e-21)
(0.10842 2.37315 -1.8443e-19)
(0.0973676 2.42014 0)
(0.172266 2.04846 1.20503e-19)
(0.111416 1.7107 5.37347e-20)
(0.230552 2.04431 -9.89211e-20)
(0.205748 2.43732 0)
(0.265871 2.38868 -6.33136e-19)
(0.30393 2.38665 4.49138e-19)
(0.231476 2.00433 -2.74793e-19)
(0.155139 2.16547 1.81035e-19)
(0.145137 2.27734 0)
(0.0205506 1.87274 -4.34517e-20)
(-0.000689699 2.4007 -9.53018e-20)
(0.00610462 2.15294 0)
(0.0131658 2.4614 -1.40021e-20)
(0.0282601 2.30534 3.34887e-20)
(0.0239557 1.39065 -6.45419e-22)
(0.0193456 1.37731 1.54054e-20)
(0.0193706 1.38045 -9.06793e-21)
(0.0252347 1.37879 2.09773e-22)
(0.0301535 1.4098 0)
(0.016208 1.36118 0)
(0.000464381 1.28184 -6.67352e-21)
(0.0123076 1.35027 8.67112e-22)
(0.0135139 1.35272 0)
(0.0143785 1.28157 -6.65835e-21)
(0.0127529 1.2112 1.30092e-20)
(1.0403 0.0111396 0)
(1.04633 0.00743001 -7.04435e-20)
(1.03857 0.0206914 -5.07626e-19)
(1.04801 0.0196267 0)
(1.05168 0.0194266 0)
(1.03631 0.0111546 -6.64502e-21)
(1.03093 0.011042 8.14833e-19)
(1.03184 0.0159949 9.88211e-19)
(1.02586 0.0199726 0)
(1.0231 0.0203696 0)
(1.03519 0.0243586 5.06432e-19)
(1.02624 0.025766 0)
(1.02447 0.0258774 0)
(-0.0254886 2.02623 0)
(0.00669014 1.65051 -4.80298e-21)
(-0.00616079 1.76028 -2.01036e-20)
(0.00264603 1.36242 0)
(-0.0122658 1.55127 4.02616e-21)
(0.00251994 1.45001 -1.95993e-21)
(0.00100928 1.37123 0)
(0.389194 1.66833 0)
(0.366549 1.29748 -1.11446e-19)
(0.301531 1.34173 0)
(0.420617 1.29525 5.89597e-20)
(0.466416 1.45595 0)
(0.447385 1.40126 9.47187e-22)
(1.03564 2.68728 -1.57822e-20)
(0.965426 2.41087 -9.30653e-19)
(0.915521 2.19176 1.0614e-18)
(0.849752 2.37479 2.46957e-19)
(0.847268 2.4979 0)
(0.917214 2.49434 0)
(0.927445 2.37347 0)
(0.906261 2.35983 -9.59344e-19)
(0.688654 2.46592 -4.12738e-19)
(0.801025 2.45611 -1.01284e-19)
(0.811632 2.43006 7.72062e-20)
(0.694507 2.39064 0)
(0.799355 2.38658 0)
(0.758018 2.39882 -3.74259e-19)
(0.769072 2.48746 0)
(0.614354 1.09899 0)
(0.484967 0.927366 -5.17378e-19)
(0.553585 0.961756 -3.28998e-20)
(0.521202 1.05548 0)
(0.522342 1.00531 7.76916e-19)
(0.777129 0.879818 -1.40221e-19)
(0.785246 1.0164 0)
(0.759642 0.97672 2.05055e-19)
(0.64571 1.03506 0)
(0.65056 0.94304 0)
(1.165 2.76257 -2.42152e-19)
(1.14276 2.82608 -1.04534e-19)
(0.932387 2.34635 1.12053e-19)
(0.900032 2.32421 -8.71969e-20)
(1.12981 2.73564 0)
(1.08309 2.70577 1.0497e-19)
(1.08973 2.48775 -3.26475e-19)
(0.983515 2.23582 -3.05471e-20)
(0.496092 1.35327 0)
(0.509794 1.07494 -1.29146e-19)
(0.563722 1.16602 0)
(0.858725 0.224187 0)
(0.786753 0.176047 0)
(0.727948 0.139301 0)
(0.855131 0.228834 -6.69968e-19)
(0.758658 0.212913 3.92663e-19)
(0.931836 0.0745453 -4.24248e-19)
(0.947173 0.120629 0)
(0.926674 0.133555 1.81832e-19)
(0.866329 0.109274 7.29791e-19)
(0.837053 0.066924 -4.56628e-19)
(1.162 3.36031 -7.15097e-19)
(1.20979 3.27965 0)
(1.16037 3.38832 -1.4753e-18)
(0.647914 3.5491 1.25317e-18)
(0.872687 3.11642 6.31068e-20)
(0.518053 0.849168 6.16282e-19)
(0.433588 0.844462 0)
(0.336934 0.480002 -1.56287e-19)
(0.455255 0.677903 8.86756e-19)
(0.537006 0.448206 -2.14482e-19)
(0.509913 0.505041 2.45351e-19)
(0.663466 0.528194 5.31156e-19)
(0.694088 0.552058 0)
(0.647161 0.608323 0)
(0.604193 0.548238 0)
(0.988827 0.600986 1.06955e-19)
(0.905848 0.536336 -5.57873e-19)
(0.93125 0.571088 4.26422e-19)
(0.966323 0.506011 -4.31478e-19)
(1.07003 0.478473 0)
(1.07778 0.569191 -1.08802e-19)
(0.846263 0.385889 -8.90322e-19)
(0.849355 0.373525 -1.10048e-18)
(0.795966 0.37821 6.9421e-19)
(0.792376 0.348747 -7.09909e-19)
(0.842386 0.307288 -5.54625e-19)
(0.794144 0.305376 6.80846e-19)
(1.02667 0.00566414 -5.15343e-19)
(1.02641 0.00588333 1.05082e-18)
(1.02931 -0.000131132 6.5129e-19)
(1.03334 0.00074006 -7.84535e-19)
(1.03355 0.00851614 0)
(1.03008 0.00909451 -1.27539e-18)
(0.0648774 1.64328 2.937e-20)
(0.045501 1.57297 0)
(0.0879335 1.69635 1.81889e-19)
(0.0986307 1.67785 -1.61681e-19)
(0.0884562 1.52507 5.7199e-20)
(0.0860226 1.50635 0)
(0.0130097 1.6793 0)
(0.00105698 1.48205 -3.48562e-21)
(0.00114983 1.42331 3.13804e-21)
(-0.00646047 1.54256 4.425e-21)
(0.00115304 1.88456 -8.11481e-21)
(-0.0151405 1.93676 6.85806e-21)
(0.495205 1.37148 -3.00428e-19)
(0.489346 1.37449 3.2926e-19)
(0.443555 1.29249 -5.56378e-20)
(0.432611 1.29168 9.3057e-21)
(0.625958 1.29899 0)
(0.543801 1.3868 7.78818e-20)
(0.559411 1.39507 -7.57932e-20)
(0.455014 1.27785 5.39859e-20)
(0.509118 1.233 0)
(0.561535 1.19935 0)
(0.654855 2.42448 6.06485e-19)
(0.669507 2.46108 1.30384e-18)
(0.715519 2.47316 -8.9826e-19)
(0.614846 2.44822 -2.10637e-19)
(0.559926 2.54076 2.94438e-19)
(0.509958 2.51415 -7.84601e-19)
(0.976125 2.38032 -5.94183e-19)
(1.01226 2.39407 0)
(0.922012 2.16997 -6.87984e-19)
(1.05325 2.68497 0)
(1.05543 2.67171 0)
(0.612621 2.27389 -1.23144e-19)
(1.04278 3.16316 1.29072e-19)
(0.913879 3.03309 -3.27203e-20)
(0.280625 0.908241 0)
(0.320379 0.76751 -3.25594e-19)
(0.481072 0.72433 -3.28282e-19)
(0.390356 2.02055 0)
(0.467227 2.78512 -4.39302e-20)
(0.423749 2.54903 0)
(0.693354 0.678087 -8.78553e-19)
(0.775401 0.678971 1.19897e-18)
(0.796197 0.621855 -1.18742e-18)
(0.674752 0.641072 -1.13662e-19)
(0.730184 0.594255 -4.71037e-19)
(1.00501 2.76624 -9.81457e-20)
(1.0423 2.82341 -1.75488e-19)
(0.640935 2.15064 6.77705e-19)
(0.597462 1.71549 -4.82205e-19)
(0.700513 1.9082 -4.17564e-19)
(0.990733 2.44961 -1.15111e-19)
(0.995554 2.44349 3.09254e-19)
(0.661762 1.84751 2.88745e-20)
(0.452918 1.3353 1.5056e-19)
)
;

boundaryField
{
    wall-4
    {
        type            noSlip;
    }
    velocity-inlet-5
    {
        type            fixedValue;
        value           uniform (1 0 0);
    }
    velocity-inlet-6
    {
        type            fixedValue;
        value           uniform (0 3 0);
    }
    pressure-outlet-7
    {
        type            zeroGradient;
    }
    wall-8
    {
        type            noSlip;
    }
    frontAndBackPlanes
    {
        type            empty;
    }
}


// ************************************************************************* //
