/*--------------------------------*- C++ -*----------------------------------*\
| =========                 |                                                 |
| \\      /  F ield         | OpenFOAM: The Open Source CFD Toolbox           |
|  \\    /   O peration     | Version:  4.0                                   |
|   \\  /    A nd           | Web:      www.OpenFOAM.org                      |
|    \\/     M anipulation  |                                                 |
\*---------------------------------------------------------------------------*/
FoamFile
{
    version     2.0;
    format      ascii;
    class       volScalarField;
    location    "39";
    object      p;
}
// * * * * * * * * * * * * * * * * * * * * * * * * * * * * * * * * * * * * * //

dimensions      [0 2 -2 0 0 0 0];

internalField   nonuniform List<scalar> 
918
(
0.588145
1.24183
0.00606804
0.587496
-0.00794053
1.20885
-0.465323
0.74879
0.568297
-0.061135
0.000570497
0.563818
1.06959
0.834563
-1.09416
0.0181838
0.698859
-0.346664
0.567329
0.0139489
0.785444
0.574878
0.577908
0.568494
0.631935
0.813743
0.950441
0.0168429
0.00247076
-0.00199697
-0.00191264
-0.0268842
-0.0101051
1.09249
1.14357
1.16626
0.536554
0.362067
-0.329003
-0.397948
-0.393142
-0.495803
0.741722
0.742621
-0.143463
0.750602
0.759161
0.555473
0.567659
0.568553
0.569636
0.568589
0.569982
0.445302
-0.0658489
-0.0975662
-0.0417388
-0.0321614
0.0917898
0.00176533
0.000837258
0.0050009
0.000735094
0.487349
0.559483
0.556698
0.568864
0.577446
1.18138
1.1533
1.17944
1.09313
1.1096
1.04757
1.02011
0.855843
0.877683
0.818808
0.805638
-1.5323
-2.49518
-0.498008
-0.243879
-0.00209416
0.0256342
0.0312393
0.69018
0.688343
0.70025
0.711895
1.11574
-0.342398
-0.45885
0.567453
0.566248
0.574638
0.575333
0.571347
0.570441
0.0152411
0.0136216
0.0103243
0.0120276
0.0104584
0.774705
0.772573
0.569034
0.566052
0.584683
0.605539
0.597439
0.318055
0.635717
0.647947
0.637257
0.802104
0.797931
0.806114
0.924099
0.887028
0.987529
1.01089
0.0155766
0.00474312
0.0126514
-0.003376
0.00767416
0.532487
0.525229
0.551514
0.539907
0.542353
0.277925
0.143032
0.447428
0.472402
-0.242206
-0.302774
-0.399331
-0.420036
-0.527493
0.63457
0.73223
0.731226
-0.162892
-0.0868743
-0.21805
-0.0142503
-0.0739983
0.545877
0.552781
0.547832
0.563244
0.557742
0.559693
0.571899
0.568973
0.570532
0.508501
0.632336
0.371025
0.335993
-0.206778
-0.116088
-0.209054
-0.0194385
-0.0148382
0.109574
0.134601
0.0805428
0.0744946
-0.0072112
-0.00163271
-0.00289742
-0.000238287
0.00377339
0.480497
0.46979
0.499636
0.506994
0.549671
0.550832
0.55417
0.552632
0.970972
0.99341
1.00079
0.974475
-3.497
-6.30126
0.0854518
0.224453
0.00520605
0.00497433
0.00407332
0.00669098
0.00750962
0.00230274
0.0481986
0.0410271
0.0319585
0.0428224
0.675809
0.675385
1.03469
1.03546
1.01638
0.966626
0.555539
0.557663
0.563214
0.559067
0.0074848
0.0121021
0.0113389
0.760147
0.768325
0.766474
0.281099
0.1941
0.367049
0.394955
0.664579
0.651582
0.662552
0.699576
0.735001
1.01835
1.03651
1.03481
1.04307
1.08707
1.10345
1.06881
0.512576
0.522201
0.517328
0.554714
0.552415
0.553364
0.548874
0.550351
0.548158
-0.00895758
-0.392654
0.521976
0.540193
0.52097
0.527056
0.714504
0.79172
0.713062
0.723192
0.721116
0.0512305
-0.00564219
0.292658
0.259795
0.422051
0.457354
0.436918
0.942211
0.902274
0.952423
0.9259
0.887234
0.913708
-0.344224
-1.85796
-0.969059
0.57942
0.391032
0.479675
0.0574869
0.0388088
0.0398751
1.02957
1.10691
0.688141
0.856917
0.86424
0.772561
0.802862
0.860459
0.783658
0.82007
0.856554
0.836624
0.590824
0.53425
0.545376
0.861784
0.918114
0.167411
0.111904
0.0670899
0.152495
0.212151
0.183692
1.06983
0.974235
1.04606
0.565803
0.566502
0.0210835
0.0279687
0.570662
0.570708
0.00177443
0.00219639
0.461912
-0.80412
0.154893
0.559143
0.549339
0.566307
-0.0447676
0.40034
0.00346409
0.0945434
0.04194
0.561843
0.497831
0.458512
0.0301226
0.018621
0.0118715
-0.171842
0.563474
0.561785
0.565769
0.566744
0.567407
0.0201483
0.0210784
0.0201101
0.0165149
0.0194224
0.0165873
0.530817
0.548449
-0.126834
0.565906
0.568029
0.567847
0.561035
0.566709
0.564928
0.0234244
0.00156588
0.00292016
0.265067
0.388263
0.707953
0.801543
0.675478
0.448289
0.20931
0.608001
0.673245
0.576166
0.733618
0.725254
0.743876
0.219444
0.0712908
0.227092
0.168057
0.557012
0.555682
0.547607
0.544683
0.561156
0.559269
0.563829
0.560825
0.563782
0.565175
-0.00423377
-0.0267879
-0.0412272
-0.104373
0.356761
0.617824
0.294937
0.325171
0.187524
0.00463195
0.00556502
0.00529431
-0.000455711
0.0433603
0.0260822
0.0868442
0.0891091
0.059028
0.0329709
0.0354239
0.0273401
0.0255795
0.555169
0.553448
0.559894
0.568452
0.507132
0.510906
0.476999
0.496939
0.482762
0.423529
0.457851
0.433401
0.0233379
0.0363066
0.0182132
0.0209596
0.0218774
0.0314852
0.0294478
0.0240086
0.0244098
0.0209507
0.0129586
0.0127318
-0.1311
-0.244932
1.02172
0.955827
0.16687
0.552666
0.559088
0.555873
0.560672
0.563804
0.564647
0.562394
0.558966
0.548969
0.550688
0.547207
0.54791
-0.064846
-0.201369
-0.0280123
-0.0968003
0.17192
0.656699
0.400344
0.339902
0.334534
0.556761
0.962939
0.756626
0.746539
0.767926
-0.308444
0.0883831
-0.24142
0.378367
0.200016
0.707531
0.756884
0.777589
0.725682
0.677836
-0.0791116
0.583296
-0.019074
0.0275889
0.222268
0.110651
0.747818
0.708896
0.714369
0.732547
0.751855
0.714714
0.696155
0.691661
0.728299
0.731841
0.533848
0.297008
0.250796
0.21187
0.691021
0.573491
0.629954
0.541434
0.552006
0.55475
0.553349
0.53557
0.542962
0.538648
0.5446
0.547894
0.556887
0.557255
0.552651
0.554835
-0.007852
-0.0101533
0.0117706
-0.0954442
-0.0861553
-0.145351
-0.0250723
0.115196
0.0771933
0.273881
0.378778
0.0915285
-0.0238248
0.00586926
0.0399166
0.21802
0.243217
0.117142
0.206511
0.192825
0.178129
0.279226
0.285298
0.0176145
0.0126885
0.0145074
0.0112405
0.0649489
0.135958
0.145615
0.0372067
0.0319438
0.00582577
0.00189882
0.0194566
0.0175069
0.0188133
0.0579674
-0.0350128
0.0158942
0.0360163
0.0396667
0.0366999
0.0307029
0.547921
0.549932
0.549678
0.557711
0.574591
0.590223
0.54867
0.528812
0.519798
0.522767
0.496432
0.506466
0.502134
0.515729
0.535844
0.544874
0.542782
0.545399
0.528439
0.529965
0.516844
0.520656
0.496409
0.478246
0.466746
0.0104325
0.0458105
0.0504704
0.00130933
0.0337647
0.0152764
0.0326981
0.0522295
0.0349051
0.0290471
0.0224713
0.0270212
0.0291802
-0.037438
0.0439567
-0.14746
-0.180773
-0.250974
0.926209
1.04621
0.84876
0.624642
0.639402
0.878064
0.964425
0.586626
0.772591
0.796211
0.607972
0.877695
0.557471
0.55708
0.554681
0.554162
0.555401
0.0245173
0.125737
0.13422
0.189022
0.303383
0.416539
0.339943
0.218491
0.351467
0.355274
0.651936
0.666475
0.61787
0.64027
0.639368
0.464858
0.543165
0.596817
0.550655
0.598305
0.620468
0.580337
0.610983
0.557675
0.513585
0.511013
0.459322
0.4812
0.458459
0.439941
0.547114
0.525024
0.535102
0.526006
0.545482
0.569638
0.566051
0.596693
0.607951
0.529825
0.48786
0.497823
0.526468
0.487798
0.501994
0.517662
0.253647
0.152478
0.238115
-0.0522926
0.0280168
0.0130202
-0.034036
0.011431
0.297079
-0.399991
-0.373236
-1.00573
0.522867
0.993167
0.700589
0.673393
0.748073
0.726662
0.730266
0.753622
0.759784
0.68133
0.699575
0.702822
0.661669
0.685217
0.708692
0.706023
0.555799
0.427802
0.420721
0.378006
0.250904
0.285958
0.488225
0.410277
0.335954
0.338765
0.501323
0.388977
0.455631
0.494552
0.426379
0.381256
0.585926
0.651128
0.64091
0.615339
0.533562
0.547725
0.572549
0.608369
0.635284
0.667394
0.544314
0.550128
0.551391
0.548901
0.546114
0.549039
0.549175
0.551707
0.552507
0.555438
0.554436
0.00369433
0.0150409
0.00262908
-0.00457122
0.0232511
0.0181464
0.0626144
0.0485812
0.0343537
0.0413622
0.0149879
0.0104292
0.0168232
0.0255737
0.137942
0.15111
0.135278
0.0957079
0.286245
0.417196
0.487749
0.365291
0.258306
0.281524
0.304788
0.0282962
0.0564468
0.0414618
0.0840022
0.0754363
0.0134232
0.0117814
0.0130829
0.0151923
0.0260752
0.00836067
0.0146284
0.0195976
0.0108288
0.00905312
0.0115213
0.531011
0.524531
0.525917
0.519896
0.518738
0.532699
0.536943
0.538759
0.54409
0.546092
0.536586
0.542072
0.545668
0.0331521
0.0181115
0.00554397
0.0250905
0.024746
0.0269464
0.0224517
0.153562
0.0842149
0.0900666
0.0423483
-0.0861538
-0.028458
0.515466
0.512186
0.507518
0.746512
0.597054
0.515147
0.610325
0.71677
0.303396
0.502276
0.335526
0.917392
0.810522
0.956787
0.572923
0.268345
0.423849
0.474729
0.282285
0.354574
0.360367
0.248411
0.280218
0.312538
0.413847
0.290077
0.264543
0.0223551
0.209998
0.327137
0.308028
0.436227
0.498281
0.287305
0.207083
0.163091
0.643482
0.662512
0.681538
0.651986
0.67614
0.606751
0.595689
0.613449
0.622074
0.618445
-0.733675
-0.441525
-1.38524
-0.699958
-0.249965
0.55307
0.515958
0.796163
0.6817
0.744958
0.729524
0.687541
0.653257
0.66755
0.699108
0.394758
0.506217
0.480536
0.486115
0.386627
0.31921
0.620775
0.614659
0.650795
0.674884
0.641815
0.674795
0.542091
0.541716
0.541399
0.537797
0.536039
0.538235
0.100348
0.0695008
0.104425
0.0842558
0.0624147
0.0513181
0.0364129
0.0287804
0.0251999
0.0246675
0.0337749
0.0358514
0.194002
0.136088
0.060051
0.0900422
0.0281939
-0.0381286
-0.0568242
0.0452947
0.138031
0.128272
0.435394
0.687018
0.508055
0.677343
0.516974
0.572707
0.498164
0.491066
0.517787
0.405249
0.485216
0.253254
-0.251069
-0.159293
0.811126
0.828901
0.610819
0.425617
0.196431
0.384818
0.581317
0.516543
0.5552
0.624144
0.615477
0.0377236
0.104012
0.365184
0.592658
0.258682
0.251114
0.24555
0.420324
0.344401
)
;

boundaryField
{
    wall-4
    {
        type            zeroGradient;
    }
    velocity-inlet-5
    {
        type            zeroGradient;
    }
    velocity-inlet-6
    {
        type            zeroGradient;
    }
    pressure-outlet-7
    {
        type            fixedValue;
        value           uniform 0;
    }
    wall-8
    {
        type            zeroGradient;
    }
    frontAndBackPlanes
    {
        type            empty;
    }
}


// ************************************************************************* //
