/*--------------------------------*- C++ -*----------------------------------*\
| =========                 |                                                 |
| \\      /  F ield         | OpenFOAM: The Open Source CFD Toolbox           |
|  \\    /   O peration     | Version:  4.0                                   |
|   \\  /    A nd           | Web:      www.OpenFOAM.org                      |
|    \\/     M anipulation  |                                                 |
\*---------------------------------------------------------------------------*/
FoamFile
{
    version     2.0;
    format      ascii;
    class       volVectorField;
    location    "39";
    object      U;
}
// * * * * * * * * * * * * * * * * * * * * * * * * * * * * * * * * * * * * * //

dimensions      [0 1 -1 0 0 0 0];

internalField   nonuniform List<vector> 
918
(
(0.985163 -0.000501743 0)
(0.0050094 2.96625 0)
(-0.00384607 0.803575 0)
(0.979703 0.00214795 0)
(-0.0345948 2.00006 2.53938e-20)
(-0.00704279 2.94879 -2.59078e-18)
(0.827204 1.1676 4.09601e-19)
(0.286831 0.134402 -1.66336e-20)
(0.999909 -0.000280844 0)
(0.0595498 0.815593 0)
(0.0162626 0.623018 0)
(0.734773 -0.0142594 0)
(0.0111358 2.93031 0)
(0.00262676 2.79487 0)
(-0.0175214 3.15633 7.49525e-19)
(0.00125264 1.86834 -2.05635e-20)
(0.354209 0.0367031 1.09134e-18)
(0.190497 1.1774 2.81554e-19)
(0.962774 0.00501689 0)
(0.00660112 0.610948 0)
(0.0653785 0.179942 -7.87329e-19)
(1.00198 -0.00498118 0)
(1.00022 -0.00979193 0)
(0.975726 -0.00644165 0)
(0.585673 -0.0368666 0)
(0.01597 2.6386 0)
(-0.0148947 2.91002 9.61494e-19)
(-0.00196438 0.876535 0)
(0.00976581 1.07258 0)
(-0.00323835 0.852131 0)
(-0.0274617 2.59729 0)
(-0.00811309 2.07576 -2.02546e-20)
(-0.0188658 1.81589 0)
(-0.020603 2.9876 -9.34922e-23)
(-0.0166904 3.0053 2.01354e-18)
(0.00210445 3.00018 0)
(0.870694 -0.00938156 0)
(0.403574 0.93721 1.98517e-19)
(0.806197 1.18496 -4.36482e-19)
(0.95216 1.02294 4.9021e-19)
(0.676956 1.27817 -9.59037e-20)
(0.675074 1.26441 5.5208e-19)
(0.327818 0.216338 1.62275e-20)
(0.301845 0.104689 0)
(1.12708 0.549444 0)
(0.293267 0.208438 7.41515e-20)
(0.257007 0.13798 -7.6948e-20)
(0.919759 -0.00745712 0)
(1.00027 0.000148625 0)
(0.99991 0.000331993 0)
(1.00363 -0.00777144 0)
(1.00096 -0.000932936 0)
(1.00017 2.91588e-05 0)
(0.0791836 1.81033 -8.52006e-19)
(0.0287967 0.995899 0)
(0.089413 0.880228 0)
(0.0116309 0.946359 0)
(0.0342295 0.758435 0)
(0.0227933 1.9969 0)
(0.02114 0.824278 0)
(0.0170014 0.652847 0)
(0.00742327 0.803883 0)
(-0.00445534 0.602759 0)
(0.837983 -0.0157271 0)
(0.847905 0.0284536 0)
(0.767731 -0.00336769 0)
(0.818867 0.0386447 0)
(0.702969 -0.0186359 0)
(0.0146927 3.0004 9.62096e-19)
(0.0115097 3.00802 0)
(0.00611639 3.00279 0)
(0.0135576 2.99736 1.09437e-23)
(0.00796834 2.95846 -1.42991e-18)
(0.0144921 2.98199 0)
(0.0108452 2.9036 0)
(0.0247647 2.93033 2.22608e-24)
(0.00445993 2.82512 0)
(0.031258 2.91607 0)
(-0.00548883 2.74564 0)
(0.308668 3.55342 0)
(-0.131823 3.63501 0)
(0.139761 3.24675 -6.97518e-19)
(-0.0125952 2.98195 0)
(-0.00259199 2.08433 0)
(-0.0147823 2.12644 2.02808e-20)
(0.00154303 1.88319 -2.8862e-20)
(0.450655 0.143689 -3.77579e-19)
(0.352811 0.0200331 -3.63844e-19)
(0.433719 0.163101 -1.13716e-18)
(0.340069 0.0559281 -7.50433e-19)
(0.221298 0.957308 0)
(0.272868 1.32103 -3.43716e-19)
(0.374052 1.2631 5.76735e-19)
(0.987477 0.00855263 0)
(0.941942 0.00586381 0)
(1.0003 0.000578456 0)
(1.00286 0.00930613 0)
(1.00302 0.00845902 -2.90191e-18)
(0.991913 0.00970017 2.19144e-18)
(-0.0133889 0.801132 0)
(-0.00484063 0.612952 0)
(-0.00224748 0.903538 0)
(-0.00810061 0.799067 0)
(-0.0158052 0.607613 0)
(0.103642 0.184655 2.4338e-19)
(0.160516 0.16155 0)
(0.993539 -0.00838142 0)
(0.954419 -0.00651731 0)
(0.768847 0.0459716 0)
(0.704585 0.0566082 0)
(0.663245 -0.0304118 0)
(0.960194 -0.00961519 0)
(0.620511 0.0756224 0)
(0.446741 -0.0127342 1.60267e-18)
(-0.0364738 2.86397 7.31947e-19)
(0.0417807 2.90972 0)
(0.054667 2.88488 0)
(-0.0043279 2.69931 0)
(-0.0132262 2.98508 9.14007e-19)
(-0.0180203 2.89506 0)
(-0.0154627 2.98805 -2.8267e-18)
(-0.0133034 2.92517 9.66747e-19)
(0.0522481 1.3106 0)
(0.0660313 1.37253 0)
(-0.011123 2.0932 -2.34394e-22)
(-0.00536349 2.06166 0)
(-0.0146952 1.83707 0)
(0.937959 -0.00770904 0)
(0.856313 -0.00955244 0)
(0.863403 0.00633067 0)
(0.949161 -0.00801782 0)
(0.883645 -0.00815011 0)
(0.515859 1.1311 -2.49745e-19)
(0.565417 1.183 0)
(0.367287 0.88093 3.62238e-20)
(0.309534 0.739918 0)
(0.911921 1.06166 -1.32405e-19)
(1.02146 0.863377 2.62004e-19)
(0.368321 1.37267 0)
(0.532322 1.34137 0)
(0.544356 1.29401 0)
(0.115063 0.180262 -3.12705e-19)
(0.361591 0.206494 0)
(0.326742 0.0979745 2.12227e-19)
(0.99219 0.918971 0)
(1.0563 0.767878 0)
(1.08084 0.708249 -1.91548e-19)
(1.10787 0.610279 0)
(1.15407 0.394107 5.43687e-20)
(0.957498 -0.00880637 0)
(0.962383 -0.0101203 0)
(0.901484 -0.00800465 0)
(0.98417 -0.0091776 0)
(0.974646 -0.0093904 0)
(0.937055 -0.00635581 0)
(1.00019 0.00233737 0)
(1.0009 0.0013985 0)
(0.999911 0.000855776 0)
(0.0338361 2.06417 4.69099e-19)
(0.121898 1.75352 0)
(0.0150493 2.18083 7.3728e-19)
(0.0522003 1.86408 -6.26141e-19)
(0.106112 1.18318 -2.2984e-19)
(0.0468187 1.06926 0)
(0.141349 1.03135 0)
(0.00800908 0.898249 0)
(0.0185814 0.715826 0)
(-0.00516728 2.22976 -1.42405e-21)
(0.0281284 1.99842 0)
(-0.00557129 2.22959 -6.75209e-20)
(0.0273282 1.99624 1.24702e-19)
(0.00416457 0.870053 0)
(0.0124691 0.848969 0)
(0.0142763 0.679083 0)
(-0.00321186 0.802767 0)
(-0.000687908 0.59542 0)
(0.935431 0.00887233 0)
(0.845107 -0.0150691 0)
(0.925495 -0.000280532 0)
(0.840112 -0.0126666 0)
(0.81216 0.00131539 0)
(0.901734 0.0198935 0)
(0.87829 0.0239157 0)
(0.788868 -0.000625202 0)
(0.00568247 3.06475 -9.0427e-21)
(0.0165193 3.0578 0)
(0.0146142 2.96906 0)
(0.0086107 2.87629 0)
(0.925656 3.97016 0)
(1.24033 3.30245 9.27402e-19)
(0.0700573 3.07421 0)
(-0.0285439 2.9055 0)
(0.0650928 1.44943 0)
(0.0166566 1.7956 0)
(0.0472602 1.65466 0)
(-0.0294756 2.55397 3.32513e-21)
(-0.0168544 2.27628 0)
(-0.0320196 2.41478 0)
(0.0208654 1.91552 -9.51223e-22)
(-0.00845375 2.20781 3.91169e-20)
(-0.0088944 2.17103 2.93275e-20)
(0.00510945 1.89463 0)
(0.477375 0.12007 5.66424e-19)
(0.375883 0.00456479 -5.56395e-19)
(0.260079 1.57447 0)
(0.269209 0.732436 -3.24039e-19)
(0.177609 1.65979 -1.08915e-18)
(0.227095 1.19943 1.09186e-18)
(0.902241 0.00651783 0)
(0.967504 0.0110364 0)
(0.974623 0.0107844 0)
(0.923442 0.00650566 0)
(-0.0130997 0.796618 0)
(-0.00754515 0.79631 0)
(-0.0121728 0.606172 0)
(0.252738 0.204809 6.83721e-19)
(0.210688 0.192369 -8.09985e-19)
(0.217705 0.150817 0)
(1.08209 0.0809981 3.13352e-20)
(1.06472 0.0360261 0)
(1.00262 0.037908 0)
(0.899126 -0.0076242 0)
(0.506359 0.0986235 0)
(0.547288 0.0818232 -2.56311e-18)
(0.404371 0.000153647 9.60275e-19)
(0.0090605 2.98104 7.77485e-19)
(-0.0329521 2.86575 4.59291e-20)
(0.00368323 3.05026 -1.90969e-20)
(0.0201114 3.04337 6.78403e-19)
(-0.0149859 2.99655 3.17003e-20)
(-0.0129744 2.94944 -1.27421e-22)
(-0.0172924 3.01195 -5.84542e-19)
(0.0148955 3.02376 4.23467e-19)
(0.007399 3.03691 -6.72585e-19)
(0.93259 -0.00176625 0)
(0.938539 -0.00368562 0)
(0.844324 -0.00919646 0)
(0.956725 0.011716 0)
(0.943043 0.0129779 0)
(0.881764 0.00609394 0)
(0.918135 0.0163503 0)
(0.926553 0.0146532 0)
(0.838671 0.00382909 0)
(0.719608 1.41043 1.89277e-20)
(0.753327 1.51978 0)
(0.187056 0.324189 7.50105e-20)
(0.218079 0.656728 6.06172e-19)
(0.25904 0.717798 -3.5233e-19)
(0.265021 0.53298 7.01008e-19)
(0.335747 0.788205 1.64174e-18)
(0.133104 0.221113 3.84035e-19)
(0.407848 0.182971 7.96273e-19)
(0.387671 0.198505 2.07334e-19)
(0.33791 0.078844 3.95847e-19)
(1.14504 0.452519 1.12238e-20)
(1.16097 0.248125 5.04907e-21)
(0.00689232 2.22904 2.92183e-19)
(0.0480266 1.93081 0)
(0.963997 0.0281845 0)
(0.938539 0.0130572 0)
(0.862681 -0.0186019 0)
(0.0113606 3.07458 0)
(0.0199022 2.94414 1.25161e-18)
(0.0164402 2.95645 0)
(0.00622992 2.85058 -1.24175e-18)
(0.00621055 3.09142 3.04804e-19)
(0.0070555 3.08213 0)
(0.786483 1.8227 -1.54608e-19)
(1.24802 2.50135 3.9089e-19)
(0.768714 1.96263 -1.2227e-18)
(0.0202295 2.98224 -6.76493e-19)
(0.0356877 3.00203 0)
(-0.0338606 2.8789 0)
(-0.00975503 2.20385 -1.47671e-20)
(-0.00736465 2.22862 -7.2626e-20)
(0.0292242 1.96136 -8.06607e-21)
(0.275168 1.38157 1.05527e-18)
(0.227112 0.519977 -7.23666e-19)
(0.0628378 1.98814 8.05843e-19)
(0.136219 1.87634 -9.53017e-19)
(0.18046 1.49361 9.18817e-20)
(0.0040442 3.11901 -1.8418e-18)
(0.0111575 3.11934 2.02378e-18)
(-0.00901582 2.98092 8.45944e-19)
(-0.00433366 2.97752 -8.02359e-19)
(-0.0212899 2.88086 -8.61584e-19)
(0.00847201 3.10006 -2.27093e-18)
(0.0020446 3.10478 2.28167e-18)
(0.273558 0.680538 0)
(0.237484 0.670681 -1.24932e-18)
(0.0955358 0.221843 5.53716e-19)
(0.350065 0.914036 1.14059e-18)
(0.188483 0.265827 -1.75895e-18)
(1.16114 0.167936 8.24958e-20)
(1.16332 0.302077 0)
(1.14841 0.116843 -2.97876e-20)
(-0.00274425 2.24474 -2.07279e-21)
(0.000637151 2.23646 0)
(0.034168 1.96757 0)
(0.339406 1.29021 -3.79991e-19)
(0.368202 1.12597 -8.20428e-19)
(0.201979 0.363966 1.46227e-18)
(1.00587 -0.0108622 0)
(1.00766 -0.00765395 5.35744e-19)
(0.0395164 1.28856 0)
(0.00407338 1.23127 0)
(1.00222 0.0035064 1.80412e-21)
(1.00366 0.00945079 1.09311e-18)
(-0.0292523 2.54737 -4.19833e-21)
(-0.0293965 2.58429 0)
(0.0357502 3.17898 4.58359e-19)
(0.395794 3.49203 0)
(1.14713 0.650765 -8.1448e-20)
(1.01293 0.0130542 -2.1463e-21)
(1.02127 -0.0104101 0)
(1.00169 0.000104177 7.29369e-23)
(0.0996784 1.35604 0)
(0.147408 2.57742 0)
(0.0278638 1.29266 0)
(0.00143213 2.63236 6.90806e-20)
(-0.0224673 2.58815 3.93083e-20)
(1.0017 0.0283981 2.47164e-21)
(1.06145 0.00334922 0)
(1.0943 0.0226521 0)
(0.010262 1.82099 0)
(-0.0269466 2.58481 0)
(0.0166192 1.28026 0)
(0.292487 1.46955 -1.32799e-19)
(1.01126 -0.009658 0)
(1.00939 -0.0149366 0)
(1.00236 0.000715197 6.8438e-19)
(1.00548 -0.00482694 -8.04619e-19)
(1.00119 -0.00098971 0)
(0.0243493 1.53538 0)
(0.041077 1.38174 0)
(0.0487358 1.47745 0)
(0.0296642 1.26741 0)
(0.0159055 1.20656 0)
(0.0119425 1.1859 0)
(1.0345 -0.00645595 0)
(1.02057 0.015694 -9.10981e-22)
(0.79752 1.26531 2.21788e-19)
(1.00225 0.000263366 -6.8263e-19)
(1.00406 0.00524875 7.98055e-19)
(1.00118 0.00205955 0)
(1.01283 0.0102641 6.78924e-19)
(1.00802 0.00828684 -8.21884e-19)
(1.00858 0.0146738 0)
(-0.0303979 2.61158 0)
(-0.029609 2.59379 4.41555e-21)
(-0.0306124 2.60461 -1.67164e-21)
(1.22467 0.253263 6.77666e-19)
(1.15564 0.0827008 0)
(0.0438778 3.0774 -9.95223e-19)
(0.0655664 2.85363 -7.22758e-20)
(0.142032 3.19316 1.51398e-18)
(0.13667 3.22205 -2.30785e-19)
(0.135364 3.23467 0)
(0.0197971 3.13777 2.58935e-19)
(0.0765278 3.16026 9.825e-19)
(0.0689829 3.18654 -4.87466e-19)
(0.0229595 3.12922 0)
(0.646986 0.293416 0)
(0.569847 0.345141 0)
(1.11435 0.685589 2.05623e-19)
(1.1104 0.813608 -2.13071e-19)
(1.17569 0.569938 0)
(1.20634 0.506294 0)
(1.01615 0.0132911 -1.26601e-18)
(1.01498 0.0142613 1.58922e-18)
(1.0252 -0.00993941 0)
(1.02325 -0.0119487 0)
(1.00645 0.00255305 0)
(1.01044 0.00369347 0)
(1.00462 0.00181268 0)
(1.00978 0.0061574 0)
(1.00783 0.00595393 0)
(1.00452 0.00465401 0)
(0.0879271 1.35234 0)
(0.0831327 1.32628 0)
(0.120514 1.38966 0)
(0.132975 1.40043 0)
(0.147108 2.60164 0)
(0.187296 2.66847 -4.57402e-19)
(0.102299 2.65946 0)
(0.0878215 2.66319 2.29943e-19)
(0.0409309 2.68582 -2.06886e-19)
(0.0244851 1.31535 0)
(0.0207477 1.24439 0)
(0.0306856 1.32142 0)
(0.0264883 1.26188 0)
(0.00114956 1.98566 -3.08651e-20)
(-0.0226723 2.6158 2.44405e-20)
(-0.0109525 2.6755 6.01214e-20)
(-0.0185154 2.69069 0)
(-0.0258357 2.62215 -8.88741e-20)
(-0.0263257 2.61557 -4.10898e-20)
(0.0104422 1.98545 2.55739e-20)
(-0.0132051 2.41095 -3.27916e-20)
(-0.016316 2.43005 -6.81695e-20)
(1.01121 0.0364322 1.28912e-18)
(1.00749 0.0164118 -1.59339e-18)
(1.00288 0.042546 -1.29023e-18)
(0.981693 0.0220482 1.64339e-18)
(1.06272 0.00718166 0)
(1.04828 -0.00881614 0)
(1.09153 0.0325596 0)
(1.07245 0.0115368 0)
(1.07023 -0.00107613 0)
(1.13678 0.0789451 0)
(1.1083 0.0418931 0)
(1.11118 0.0299359 0)
(-0.0289438 2.44027 -4.81761e-21)
(-0.00798995 2.03327 0)
(-0.0162381 2.23589 0)
(-0.028285 2.60625 1.08393e-20)
(-0.0238509 2.61773 -6.10159e-22)
(0.00142984 1.59355 3.49157e-20)
(0.0203614 1.55714 -3.523e-20)
(0.0211243 1.39493 0)
(0.0333758 1.40923 0)
(0.0243529 1.41006 0)
(-0.000770294 1.29087 0)
(0.00467138 1.2103 0)
(0.379007 1.48443 2.07001e-19)
(0.417695 1.4893 1.23381e-19)
(0.596614 2.44705 -2.46536e-19)
(0.402576 2.54243 7.29974e-19)
(0.352387 2.06586 8.38539e-20)
(1.02096 -0.00821894 0)
(1.01545 -0.00980477 0)
(1.01489 -0.0155299 0)
(1.00746 -0.00120246 0)
(1.00492 -0.000966995 0)
(1.00776 -0.00476997 0)
(1.00924 -0.00372136 0)
(1.01416 -0.00449331 0)
(1.02128 0.0160318 1.23991e-18)
(1.01807 0.0157308 -1.58942e-18)
(1.02173 0.0179772 -1.24851e-18)
(1.01963 0.0166503 1.56312e-18)
(0.764516 1.31412 0)
(0.699898 1.36679 2.01406e-19)
(0.873504 1.21038 5.78315e-20)
(0.916271 1.16335 -7.69102e-20)
(1.15639 2.60878 3.43627e-19)
(0.80631 0.106923 6.27533e-19)
(1.15842 0.10238 0)
(1.20332 0.183886 -5.44277e-19)
(1.18674 0.148125 -2.30199e-20)
(1.00378 0.144817 0)
(0.136612 2.96125 5.8779e-19)
(0.113748 2.86701 -1.25904e-18)
(0.0243234 2.37206 8.4962e-19)
(0.0915451 -0.0170776 -3.81212e-19)
(0.340705 3.42098 -1.89657e-19)
(0.194773 3.31339 0)
(0.237731 3.3556 2.46997e-19)
(0.246131 3.03446 -1.91955e-18)
(0.340734 3.19379 0)
(0.00758227 3.12064 4.99995e-20)
(0.0177306 3.12955 -5.85454e-19)
(0.0160081 3.12561 8.61706e-19)
(0.0360242 3.13954 0)
(0.0342166 3.15079 0)
(1.21565 2.60826 0)
(0.538083 0.837175 -5.56081e-19)
(1.03744 0.98812 2.74053e-20)
(0.974181 1.06391 0)
(0.824828 0.966425 -1.2967e-19)
(1.0611 0.8794 2.8806e-20)
(0.366571 0.396332 -9.81038e-19)
(0.691648 0.319522 -2.20054e-20)
(0.655723 0.235225 4.49855e-19)
(0.588678 0.375125 3.32603e-20)
(0.504339 0.344257 -1.33946e-18)
(0.662251 0.337139 0)
(0.703387 0.422103 7.63419e-19)
(0.711655 0.420449 0)
(0.623524 0.366805 0)
(0.594723 0.289831 0)
(0.799859 0.615681 4.5534e-19)
(1.22338 0.275822 -5.73122e-19)
(1.21843 0.412708 0)
(1.22951 0.353873 0)
(0.741627 0.187098 6.67933e-19)
(0.846849 0.535528 -4.16855e-19)
(0.745361 0.508113 7.38687e-19)
(0.949505 0.423222 -8.16374e-19)
(1.01972 0.014693 8.52468e-19)
(1.01786 0.0142067 -8.57459e-19)
(1.01594 0.0155853 0)
(1.03592 -0.00599341 0)
(1.02958 -0.00862435 -8.04428e-19)
(1.02752 -0.012161 7.96541e-19)
(1.02505 0.00978512 0)
(1.02365 0.0134415 0)
(1.01142 0.00406482 0)
(1.01428 0.00899786 0)
(1.01512 0.00393037 0)
(1.01422 0.00274952 0)
(0.0585559 1.33656 0)
(0.0634221 1.29575 0)
(0.144001 1.36345 -3.32186e-20)
(0.268752 1.46643 6.6317e-20)
(0.161649 1.4377 1.36758e-19)
(0.192017 1.44538 -2.24556e-19)
(0.165104 1.38703 0)
(0.132552 1.59216 -1.14506e-19)
(0.116504 1.56378 0)
(0.351335 2.01895 -1.21891e-19)
(0.347192 2.35086 6.64013e-19)
(0.188033 1.44835 9.9842e-20)
(0.261475 1.38077 5.50256e-21)
(0.198877 1.36773 -4.45706e-21)
(0.273553 1.32268 -1.4234e-19)
(0.241191 1.57591 0)
(0.262305 1.61603 1.43219e-19)
(0.034756 2.26887 -4.79974e-20)
(0.0430026 2.67571 0)
(0.0675134 2.40674 1.75753e-19)
(0.0618591 2.42828 0)
(0.0710717 2.67663 -2.5458e-19)
(0.050865 2.7052 0)
(0.029844 1.40434 -1.43795e-20)
(0.0373777 1.45639 0)
(0.0324556 1.37342 0)
(0.0267088 1.3747 1.62245e-20)
(-0.000170342 2.66074 -1.90284e-20)
(0.0288984 2.70496 2.38576e-19)
(0.0113317 2.72996 1.65245e-21)
(0.00162936 1.83429 2.88616e-20)
(-0.00518536 1.67789 1.27127e-20)
(0.0299962 1.29089 0)
(0.0110425 1.22417 0)
(0.0501987 1.56762 3.01549e-20)
(0.0309301 1.4402 2.62655e-20)
(0.0394565 1.50586 -3.21911e-20)
(0.0419252 1.59226 0)
(-0.0352625 2.28619 2.61571e-20)
(-0.0431872 2.5572 -1.46885e-20)
(-0.0182248 2.45587 -7.51385e-21)
(-0.0103887 1.8519 -3.49985e-20)
(-0.0296405 2.50761 -1.29857e-20)
(-0.0254788 2.45141 6.00782e-20)
(1.01971 0.0207379 -8.46924e-19)
(1.01594 0.0261923 8.50904e-19)
(1.01513 0.0162881 0)
(1.01125 0.0680075 1.19601e-18)
(0.991234 0.0565595 -1.3392e-18)
(0.95191 0.0420185 1.49822e-18)
(1.01422 0.104491 -1.59575e-19)
(1.04214 -0.00603116 0)
(1.05024 -0.00191007 7.6909e-19)
(1.03852 -0.0100526 -7.70297e-19)
(1.06951 0.0404639 -4.59219e-20)
(1.06324 0.0223478 3.94935e-19)
(1.06359 0.0535501 0)
(1.05125 0.0483129 -1.41868e-19)
(1.03304 0.0407361 0)
(1.02607 0.0368489 0)
(1.02785 0.0127717 0)
(1.02431 0.0156029 0)
(1.03978 0.0307912 2.92027e-19)
(1.03936 0.0260263 -6.44297e-19)
(1.05024 0.0323019 -3.09868e-19)
(1.04849 0.032082 -3.40823e-19)
(1.06963 0.0625404 6.68697e-19)
(1.0941 0.0500076 0)
(1.10198 0.093015 0)
(-0.0370365 2.28433 -7.36206e-21)
(-0.0153593 2.03088 -6.31859e-21)
(-0.0241335 2.02673 0)
(-0.0271306 2.45612 7.8894e-21)
(-0.0196905 2.40482 1.08997e-20)
(-0.0380548 2.48216 -2.31044e-21)
(-0.025337 2.62823 3.5036e-20)
(-0.0314678 2.56988 -3.37102e-21)
(-0.0272988 2.52287 1.18109e-20)
(-0.0222174 2.62239 -1.49712e-20)
(-0.027837 2.6236 1.97758e-20)
(-0.00531989 1.49427 -4.6769e-22)
(0.00694664 1.62826 3.13404e-20)
(0.367328 1.4258 -8.00454e-20)
(0.365482 1.36874 7.53002e-20)
(0.64622 1.41406 -1.94696e-19)
(0.515208 1.47932 -1.1996e-19)
(0.568224 1.45041 0)
(0.592258 2.42279 2.19017e-19)
(0.659737 2.4153 3.47643e-19)
(0.410943 2.51637 8.39893e-20)
(0.404378 2.54376 -6.66077e-19)
(0.512371 2.48859 6.47215e-19)
(0.551787 2.46079 0)
(0.488956 2.51654 -5.81425e-19)
(0.249238 2.59215 1.22312e-18)
(0.354001 2.56508 -8.1938e-20)
(0.285069 2.65392 -1.67339e-18)
(0.943584 2.37902 7.56418e-19)
(0.835616 2.38133 0)
(1.01095 0.000397868 2.77892e-20)
(1.01522 -0.00551447 -2.25616e-20)
(1.01763 -0.00364853 -4.12238e-19)
(1.01489 -0.000973553 4.1405e-19)
(1.01231 0.00102176 0)
(0.634039 1.28194 0)
(0.652485 1.17937 0)
(0.75698 1.08804 0)
(0.645024 1.14343 0)
(1.18598 2.62328 5.85786e-20)
(1.07379 2.36755 0)
(0.837932 2.19025 4.16253e-21)
(0.825034 2.44847 0)
(0.921985 2.53971 -4.57488e-19)
(0.957234 2.49588 3.04528e-19)
(0.815655 0.160411 0)
(0.781792 0.132665 1.7133e-19)
(0.924829 0.139666 9.96588e-19)
(0.840111 0.139589 -3.73067e-19)
(0.815331 0.0801983 -1.14548e-18)
(1.07673 0.224975 -9.76533e-19)
(0.996332 0.28307 -1.53246e-20)
(0.924207 0.281604 9.27343e-19)
(1.00367 0.214556 7.76423e-19)
(0.953335 0.183286 -1.32756e-18)
(0.917611 0.185024 1.65949e-19)
(0.952007 0.244816 -3.56518e-19)
(0.930633 0.207859 0)
(0.992681 0.179471 6.55309e-19)
(1.04331 0.179129 0)
(1.04241 0.205125 0)
(1.10591 0.113851 3.12771e-19)
(1.06764 0.167321 -1.40183e-20)
(1.07124 0.226337 -1.70692e-19)
(1.10257 0.194424 0)
(1.02285 0.0439617 6.57445e-19)
(1.04108 0.0567455 8.21595e-19)
(1.03434 0.0425614 -6.5232e-19)
(1.04208 0.0631764 -5.50603e-19)
(1.01898 0.0708236 -8.41007e-19)
(0.98816 0.151594 0)
(0.998385 0.100704 0)
(0.968039 0.0644845 -5.33452e-19)
(0.918501 0.0871996 2.09484e-19)
(1.03737 0.100561 7.61411e-19)
(1.06752 0.11718 -9.02254e-19)
(1.06987 0.148335 8.04966e-19)
(1.02914 0.138345 0)
(1.07343 0.106027 0)
(1.05468 0.0872329 -3.67173e-19)
(1.04418 0.0931868 -6.2338e-19)
(0.578377 1.07586 1.5395e-19)
(0.612813 1.41291 -5.57293e-20)
(1.15671 2.74177 -2.46983e-19)
(1.22352 3.0824 5.50205e-21)
(1.24879 2.7228 -1.76715e-19)
(1.27904 2.7067 -1.03302e-20)
(1.20693 2.34608 -1.0068e-20)
(1.21067 2.98629 -1.09579e-19)
(1.22989 2.95143 2.6026e-19)
(1.21457 3.23589 -1.36956e-19)
(1.37554 2.96758 1.89425e-19)
(1.36615 2.88559 0)
(0.542837 0.84512 -5.21937e-20)
(0.137337 1.25549 5.93354e-19)
(0.532602 0.451947 6.33478e-19)
(0.37019 0.203453 6.99572e-19)
(0.52788 0.378324 7.56068e-19)
(0.545932 0.474614 -1.21463e-18)
(0.547111 0.476407 9.91533e-19)
(0.496377 0.400282 -3.82321e-19)
(0.419295 0.333127 8.66905e-19)
(0.745044 0.247082 -3.82271e-19)
(0.711214 0.279118 0)
(0.693833 0.202805 9.43362e-21)
(0.730171 0.511232 4.01851e-19)
(0.701269 0.482555 -1.46484e-18)
(0.614847 0.469311 1.55398e-20)
(0.625483 0.458935 0)
(0.673975 0.731412 4.22985e-19)
(0.825729 0.772279 4.38201e-19)
(0.749913 0.853629 -5.11521e-19)
(0.867603 0.80574 -1.76094e-19)
(0.899743 0.850091 -4.54239e-20)
(0.907665 0.850597 4.651e-20)
(0.841723 0.644469 -7.55767e-19)
(0.919514 0.702309 1.63602e-19)
(0.975149 0.716667 0)
(0.966144 0.692812 -2.25727e-19)
(1.02384 0.320269 2.36669e-19)
(1.139 0.289772 3.31914e-19)
(1.06397 0.259795 3.9942e-19)
(1.01137 0.35477 -4.74467e-19)
(1.05333 0.420033 0)
(1.10534 0.403971 0)
(0.913184 0.351524 6.15592e-21)
(0.841582 0.283872 0)
(0.8739 0.277846 4.35494e-19)
(0.906891 0.287206 -4.61701e-21)
(0.942014 0.426146 2.27798e-18)
(0.898568 0.487314 5.89168e-19)
(0.90246 0.450321 -6.23022e-19)
(0.821068 0.43355 6.67476e-19)
(0.803792 0.429084 3.99298e-19)
(0.774532 0.414566 -3.92391e-19)
(1.02735 -0.000459315 6.87022e-19)
(1.02003 -0.000137339 0)
(1.01849 0.000795156 4.47508e-19)
(1.0215 -0.00193878 -1.0138e-18)
(1.02226 0.00423752 4.9265e-19)
(1.02043 0.0110791 -1.03187e-18)
(1.0214 0.0104765 0)
(1.02072 0.0107375 -2.1493e-19)
(1.016 0.00760692 5.39231e-19)
(1.01675 0.0103672 -2.69015e-19)
(1.01745 0.0097093 1.98154e-19)
(0.0324224 1.3116 0)
(0.0350704 1.34535 0)
(0.0407054 1.31351 0)
(0.0425089 1.27365 0)
(0.0708077 1.37368 4.22979e-20)
(0.0769122 1.34683 -5.72601e-21)
(0.111323 1.50239 -3.63038e-20)
(0.0935254 1.35276 1.69433e-20)
(0.0349619 1.44472 -5.31818e-20)
(0.0388173 1.43731 4.14715e-20)
(0.0621483 1.35722 -7.52587e-21)
(0.0550061 1.35861 -1.61013e-20)
(0.0467967 1.33474 -2.64585e-21)
(0.0401309 1.35568 -5.58675e-21)
(0.109552 2.37664 -1.94303e-19)
(0.097571 2.42294 0)
(0.173636 2.0514 1.25384e-19)
(0.112775 1.7113 5.83441e-20)
(0.23162 2.04561 -1.029e-19)
(0.20723 2.43913 0)
(0.267071 2.3903 -6.48973e-19)
(0.305768 2.38816 4.60355e-19)
(0.233423 2.00534 -2.85985e-19)
(0.156101 2.16731 1.87092e-19)
(0.145952 2.28018 0)
(0.0203129 1.87462 -5.82121e-20)
(-0.00279504 2.40658 -1.1449e-19)
(0.00401047 2.15777 0)
(0.0135097 2.46521 -1.41654e-20)
(0.0275197 2.30911 4.08304e-20)
(0.0217173 1.39014 2.29746e-21)
(0.0165897 1.37527 -3.69368e-20)
(0.0173137 1.37996 8.71472e-21)
(0.0232632 1.3778 1.3822e-20)
(0.0285263 1.40832 0)
(0.0124685 1.36248 0)
(0.00289995 1.27813 1.61771e-20)
(0.00545575 1.34957 -5.9735e-21)
(0.0126395 1.35042 0)
(0.00786033 1.27996 8.50996e-21)
(0.00668261 1.1995 -1.93449e-20)
(1.04008 0.0109775 0)
(1.04622 0.00728026 -7.21174e-20)
(1.03864 0.0205434 -5.19605e-19)
(1.04794 0.0195216 0)
(1.05148 0.0193439 0)
(1.03636 0.0109252 -6.63854e-21)
(1.03095 0.0108251 8.33615e-19)
(1.03192 0.0158278 1.01119e-18)
(1.02592 0.0198712 0)
(1.0232 0.0202717 0)
(1.03525 0.0242174 5.18388e-19)
(1.02631 0.0256381 0)
(1.02458 0.0257189 0)
(-0.0295366 2.02904 0)
(0.00276975 1.64687 -7.83489e-21)
(-0.00682805 1.76709 -2.40835e-20)
(0.0013949 1.36166 0)
(-0.0113247 1.55606 1.62121e-20)
(-0.0036401 1.44919 -1.16956e-20)
(0.00588062 1.37333 0)
(0.390109 1.66956 0)
(0.367381 1.29771 -1.37869e-19)
(0.303363 1.34212 0)
(0.422794 1.29535 8.99777e-20)
(0.467135 1.45458 0)
(0.448248 1.40046 -1.23338e-20)
(1.03525 2.68686 -1.61547e-20)
(0.965024 2.40977 -9.50735e-19)
(0.914876 2.19014 1.08625e-18)
(0.849095 2.37362 2.51282e-19)
(0.846694 2.49733 0)
(0.916721 2.49391 0)
(0.926953 2.37217 0)
(0.905532 2.35844 -9.76161e-19)
(0.688685 2.46551 -4.26734e-19)
(0.800792 2.45591 -1.04324e-19)
(0.811272 2.42988 7.95545e-20)
(0.694187 2.39006 0)
(0.798672 2.38561 0)
(0.757499 2.39803 -3.78659e-19)
(0.768791 2.487 0)
(0.612412 1.09891 0)
(0.483462 0.927958 -5.32318e-19)
(0.550594 0.962597 -3.38405e-20)
(0.519383 1.05503 0)
(0.520389 1.00512 7.99382e-19)
(0.773358 0.879524 -1.45706e-19)
(0.782399 1.01571 0)
(0.756332 0.974749 2.15215e-19)
(0.642614 1.03498 0)
(0.647322 0.94328 0)
(1.16443 2.76314 -2.51868e-19)
(1.1421 2.82678 -1.11789e-19)
(0.931731 2.34745 1.24525e-19)
(0.899508 2.3251 -9.11651e-20)
(1.1292 2.7358 0)
(1.08256 2.70588 1.09742e-19)
(1.08909 2.4873 -3.34437e-19)
(0.982835 2.23474 -3.04081e-20)
(0.495415 1.35419 0)
(0.508728 1.07432 -1.35771e-19)
(0.562039 1.16456 0)
(0.85999 0.220307 0)
(0.788294 0.17109 0)
(0.733109 0.138045 0)
(0.855823 0.224251 -6.8547e-19)
(0.762445 0.209999 4.01469e-19)
(0.933471 0.0740215 -4.32681e-19)
(0.948608 0.120067 0)
(0.928052 0.131443 1.85457e-19)
(0.868098 0.108125 7.43965e-19)
(0.840619 0.0658297 -4.65586e-19)
(1.16186 3.36124 -7.07751e-19)
(1.20953 3.28057 0)
(1.16032 3.38916 -1.46234e-18)
(0.64806 3.54992 1.24177e-18)
(0.872858 3.11719 5.50076e-20)
(0.515518 0.85212 6.25965e-19)
(0.432184 0.84625 0)
(0.339023 0.487694 -1.587e-19)
(0.452935 0.67992 9.01976e-19)
(0.536087 0.456938 -2.18727e-19)
(0.509633 0.51087 2.49364e-19)
(0.662627 0.530229 5.41983e-19)
(0.693304 0.554284 0)
(0.645573 0.611081 0)
(0.602959 0.549738 0)
(0.981821 0.601452 1.14401e-19)
(0.901282 0.536534 -5.73188e-19)
(0.925545 0.570871 4.40759e-19)
(0.961725 0.505611 -4.44129e-19)
(1.06527 0.478834 0)
(1.07274 0.570031 -1.13379e-19)
(0.844937 0.385154 -9.1124e-19)
(0.848279 0.371904 -1.12738e-18)
(0.796094 0.379005 7.10343e-19)
(0.791748 0.349731 -7.25749e-19)
(0.842048 0.305996 -5.6713e-19)
(0.794169 0.304859 6.96547e-19)
(1.02667 0.00556844 -5.26235e-19)
(1.02643 0.00577581 1.07242e-18)
(1.02922 -0.000199556 6.66522e-19)
(1.0333 0.00069273 -8.02986e-19)
(1.03347 0.0083362 0)
(1.03009 0.00890072 -1.30471e-18)
(0.0645608 1.64071 3.19743e-20)
(0.0460756 1.56987 0)
(0.0868398 1.69344 2.04017e-19)
(0.0977172 1.67714 -1.8169e-19)
(0.0863438 1.52129 6.81201e-20)
(0.0866636 1.50252 0)
(0.00603708 1.68316 0)
(-0.00183885 1.48818 -8.95404e-21)
(-0.00313259 1.42581 8.04764e-21)
(-0.0072703 1.54573 2.55377e-21)
(-0.00224138 1.88911 -1.70557e-20)
(-0.0211584 1.93994 1.05099e-20)
(0.494659 1.37209 -3.25307e-19)
(0.488783 1.37512 3.56104e-19)
(0.44445 1.29189 -7.27821e-20)
(0.432364 1.29244 1.07338e-20)
(0.625454 1.29869 0)
(0.544135 1.38605 6.21659e-20)
(0.559808 1.394 -6.05011e-20)
(0.455237 1.27761 7.02908e-20)
(0.508715 1.23236 0)
(0.561246 1.19795 0)
(0.655083 2.42424 6.26941e-19)
(0.669789 2.46081 1.33003e-18)
(0.715425 2.47283 -9.16238e-19)
(0.6149 2.44817 -2.13538e-19)
(0.560684 2.54031 3.01231e-19)
(0.510817 2.51366 -8.00949e-19)
(0.975712 2.37926 -6.08317e-19)
(1.01178 2.39326 0)
(0.921317 2.16841 -7.03112e-19)
(1.05273 2.68493 0)
(1.05485 2.6716 0)
(0.613125 2.27588 -1.31107e-19)
(1.0425 3.16401 1.20199e-19)
(0.913635 3.034 -2.35423e-20)
(0.281595 0.913148 0)
(0.322743 0.774055 -3.30288e-19)
(0.481774 0.729986 -3.34519e-19)
(0.391732 2.02275 0)
(0.467609 2.78567 -3.82924e-20)
(0.424438 2.54964 0)
(0.689055 0.679251 -8.97766e-19)
(0.770586 0.679827 1.22787e-18)
(0.791288 0.622562 -1.21649e-18)
(0.671979 0.642144 -1.16043e-19)
(0.727769 0.596085 -4.81662e-19)
(1.00466 2.76742 -9.13962e-20)
(1.04166 2.82452 -1.88894e-19)
(0.641512 2.15393 6.90234e-19)
(0.597462 1.71738 -4.90283e-19)
(0.700208 1.90949 -4.33162e-19)
(0.990229 2.45066 -1.16661e-19)
(0.994895 2.44511 3.23331e-19)
(0.661933 1.85001 2.9838e-20)
(0.452345 1.33614 1.57315e-19)
)
;

boundaryField
{
    wall-4
    {
        type            noSlip;
    }
    velocity-inlet-5
    {
        type            fixedValue;
        value           uniform (1 0 0);
    }
    velocity-inlet-6
    {
        type            fixedValue;
        value           uniform (0 3 0);
    }
    pressure-outlet-7
    {
        type            zeroGradient;
    }
    wall-8
    {
        type            noSlip;
    }
    frontAndBackPlanes
    {
        type            empty;
    }
}


// ************************************************************************* //
