/*--------------------------------*- C++ -*----------------------------------*\
| =========                 |                                                 |
| \\      /  F ield         | OpenFOAM: The Open Source CFD Toolbox           |
|  \\    /   O peration     | Version:  4.0                                   |
|   \\  /    A nd           | Web:      www.OpenFOAM.org                      |
|    \\/     M anipulation  |                                                 |
\*---------------------------------------------------------------------------*/
FoamFile
{
    version     2.0;
    format      ascii;
    class       volScalarField;
    location    "28";
    object      p;
}
// * * * * * * * * * * * * * * * * * * * * * * * * * * * * * * * * * * * * * //

dimensions      [0 2 -2 0 0 0 0];

internalField   nonuniform List<scalar> 
918
(
0.293922
0.947343
0.025017
0.293046
-0.0138927
0.914996
-0.768387
0.466169
0.27372
-0.34355
-0.351393
0.265119
0.775623
0.541499
-1.38571
-0.288452
0.419671
-0.646087
0.273049
-0.188161
0.509399
0.280233
0.283268
0.273676
0.33656
0.528275
0.655874
-0.0139286
0.0143285
-0.0221556
-0.0392566
-0.123687
-0.156161
0.798362
0.848973
0.871527
0.242831
0.0800478
-0.609417
-0.693808
-0.683737
-0.815354
0.460148
0.463578
-0.434258
0.467337
0.479108
0.261485
0.273058
0.274016
0.275143
0.27406
0.275506
0.166172
-0.347357
-0.382232
-0.323631
-0.313893
-0.156618
-0.334257
-0.318839
-0.368036
-0.379846
0.194582
0.262502
0.26011
0.270513
0.277938
0.8861
0.857127
0.882739
0.799662
0.814544
0.753318
0.725192
0.562323
0.583346
0.526784
0.515779
-1.81146
-2.7742
-0.79692
-0.54368
-0.0142906
-0.263337
-0.255622
0.409964
0.411605
0.418585
0.433588
0.819318
-0.633743
-0.789243
0.272826
0.271791
0.279977
0.280319
0.277478
0.275555
-0.243962
-0.290764
-0.0524396
-0.155965
-0.120731
0.495034
0.49236
0.27537
0.271991
0.283502
0.303931
0.296829
0.0348368
0.340534
0.355771
0.34241
0.514574
0.510177
0.518243
0.630356
0.593206
0.693532
0.716901
-0.00155471
-0.00519464
-0.292986
-0.203074
-0.243939
0.23883
0.230926
0.256862
0.246065
0.248485
-0.00316792
-0.137688
0.174361
0.200705
-0.518295
-0.595228
-0.696734
-0.71853
-0.833436
0.341126
0.448859
0.449302
-0.443732
-0.374487
-0.512419
-0.288152
-0.358444
0.251918
0.258809
0.253174
0.268771
0.263523
0.265097
0.277353
0.274443
0.275941
0.225849
0.328335
0.100095
0.0628964
-0.507614
-0.400717
-0.493044
-0.304395
-0.306266
-0.157733
-0.135923
-0.175195
-0.162029
-0.301731
-0.309038
-0.302267
-0.399983
-0.384692
0.189001
0.17889
0.207449
0.2146
0.254551
0.255327
0.257748
0.256425
0.675548
0.698
0.706393
0.680095
-3.79541
-6.86024
-0.214084
-0.0736115
-0.021249
-0.0138294
-0.00557456
-0.00975068
-0.00341045
-0.0167225
-0.153577
-0.138787
-0.190976
-0.178239
0.393925
0.397079
0.725499
0.713559
0.693488
0.640531
0.260929
0.26308
0.26863
0.264123
-0.386808
-0.337968
-0.359189
0.476084
0.485594
0.4848
-0.00114835
-0.0846875
0.0821053
0.108649
0.378785
0.363404
0.378959
0.403879
0.439187
0.723342
0.741264
0.741497
0.749592
0.794771
0.807774
0.773419
0.219918
0.228955
0.224587
0.260111
0.257777
0.258678
0.253927
0.255515
0.252636
-0.309268
-0.671968
0.274827
0.28884
0.254222
0.272368
0.422607
0.479842
0.429515
0.438278
0.441764
-0.220137
-0.284416
0.0232474
-0.00891758
0.132404
0.167044
0.146384
0.646414
0.608374
0.658299
0.631453
0.592012
0.617678
-0.711798
-1.95896
-1.21471
0.284208
0.0935981
0.181996
-0.173851
-0.15588
-0.150913
0.692452
0.786963
0.374324
0.556035
0.605325
0.479622
0.511143
0.566219
0.490375
0.524991
0.559857
0.54233
0.303726
0.289087
0.277789
0.530111
0.577677
-0.106206
-0.153398
-0.212169
-0.116012
-0.0666038
-0.0888934
0.75033
0.636818
0.715917
0.271555
0.272148
-0.0328045
-0.0714201
0.276261
0.276435
-0.050654
-0.14736
0.166253
-1.08501
-0.127687
0.264348
0.254972
0.271654
-0.336912
0.13777
-0.318865
-0.156409
-0.202458
0.263285
0.204583
0.167416
-0.0487526
-0.334497
-0.261655
-0.46447
0.269058
0.267228
0.27117
0.272286
0.272892
-0.0860802
-0.0717218
-0.0523016
-0.259204
-0.155611
-0.17313
0.236877
0.253002
-0.422926
0.271319
0.273492
0.273325
0.266163
0.271996
0.269935
-0.23943
-0.178321
-0.330667
-0.00965782
0.105035
0.415228
0.519285
0.382565
0.150215
-0.0972408
0.3132
0.379991
0.282135
0.440547
0.438375
0.458148
-0.0614122
-0.218182
-0.0569111
-0.113826
0.26254
0.260891
0.253314
0.250425
0.266624
0.264773
0.269237
0.266124
0.268989
0.270462
-0.293364
-0.317702
-0.331309
-0.394858
0.0941721
0.354035
0.0254686
0.0673144
-0.0963044
-0.357085
-0.353361
-0.296049
-0.303937
-0.210666
-0.216248
-0.172017
-0.16502
-0.220466
-0.218119
-0.248654
-0.231426
-0.258893
0.257179
0.256132
0.262206
0.269047
0.213781
0.21753
0.18425
0.203573
0.188741
0.134398
0.167757
0.142579
-0.051057
-0.061518
-0.0303628
-0.321664
-0.288033
-0.219409
-0.157288
-0.224037
-0.141502
-0.162736
-0.363814
-0.353097
-0.427259
-0.54388
0.717191
0.662058
-0.160392
0.258195
0.264645
0.26134
0.266112
0.269208
0.270167
0.267926
0.264469
0.25367
0.255639
0.251871
0.252057
-0.357096
-0.500171
-0.328242
-0.389319
-0.132333
0.372852
0.117188
0.0475734
0.0489581
0.27031
0.682674
0.455945
0.453253
0.493433
-0.617495
-0.23099
-0.551098
0.0416525
-0.137575
0.411687
0.464008
0.488511
0.432494
0.383627
-0.513219
0.275526
-0.305046
-0.263276
-0.0665678
-0.167541
0.463216
0.422264
0.427976
0.444959
0.465584
0.424442
0.403791
0.401579
0.441631
0.447656
0.239374
0.0253681
-0.0313854
-0.0615755
0.40779
0.280865
0.335095
0.251164
0.257206
0.260151
0.258615
0.24165
0.248872
0.244565
0.250068
0.253041
0.262585
0.263095
0.258186
0.260579
-0.287821
-0.295806
-0.265395
-0.385873
-0.376462
-0.436903
-0.310012
-0.189853
-0.217265
-0.0269175
0.0546409
-0.215813
-0.318763
-0.288986
-0.27519
-0.0920708
-0.0326625
-0.157806
-0.0791146
-0.0841234
-0.0960506
0.0155853
0.0118556
-0.301552
-0.252673
-0.276765
-0.293074
-0.191049
-0.137531
-0.108929
-0.343368
-0.289773
-0.389418
-0.397034
-0.263599
-0.274226
-0.259588
-0.218256
-0.306618
-0.288453
-0.302432
-0.398432
-0.315523
-0.316206
0.252031
0.25345
0.253576
0.262831
0.27574
0.29058
0.255449
0.23525
0.22649
0.22916
0.204161
0.21365
0.209331
0.22158
0.241036
0.248455
0.248286
0.250711
0.234221
0.236049
0.223434
0.226175
0.205439
0.187631
0.175947
-0.21683
-0.142596
-0.203911
-0.171971
-0.0949607
-0.122561
-0.269475
-0.291984
-0.292346
-0.269982
-0.231045
-0.314351
-0.293071
-0.337316
-0.261247
-0.44381
-0.478167
-0.551939
0.623469
0.725927
0.555078
0.331265
0.336531
0.571073
0.658449
0.30933
0.46619
0.503741
0.305922
0.54378
0.263073
0.262679
0.260276
0.259725
0.261133
-0.271385
-0.164691
-0.159252
-0.101236
0.0130082
0.137582
0.0272742
-0.0981894
0.0416343
0.0376009
0.366518
0.385082
0.328715
0.354778
0.353905
0.180789
0.256201
0.311812
0.268044
0.30936
0.32897
0.293373
0.319982
0.27153
0.227157
0.228622
0.173525
0.187365
0.166393
0.150117
0.252795
0.230503
0.240733
0.231548
0.252327
0.279182
0.27217
0.300486
0.312433
0.237823
0.199974
0.206267
0.236142
0.198794
0.212304
0.225465
-0.0422058
-0.110904
-0.075298
-0.364476
-0.277159
-0.353674
-0.384818
-0.269539
0.0295164
-0.714704
-0.773612
-1.33239
0.217373
0.73977
0.420655
0.363692
0.461667
0.436507
0.437247
0.47115
0.474424
0.397088
0.414341
0.420853
0.366503
0.390244
0.420303
0.416392
0.256369
0.122055
0.111445
0.0784074
-0.0413348
-0.00671814
0.196419
0.111727
0.0391669
0.0561972
0.218222
0.114726
0.177644
0.205805
0.126583
0.100197
0.291484
0.363919
0.354177
0.32774
0.245257
0.255454
0.286097
0.320808
0.34591
0.385162
0.249941
0.255553
0.256798
0.254484
0.251592
0.254296
0.254411
0.257013
0.257869
0.260966
0.2599
-0.294814
-0.269603
-0.297385
-0.310504
-0.269627
-0.276321
-0.220287
-0.229847
-0.252353
-0.241558
-0.274295
-0.269639
-0.27481
-0.264603
-0.134682
-0.127682
-0.14448
-0.186089
-0.0254225
0.11985
0.176778
0.0592408
-0.0330799
-5.83239e-05
0.014965
-0.247742
-0.217373
-0.213656
-0.188584
-0.191061
-0.3799
-0.414158
-0.41077
-0.317892
-0.343668
-0.455556
-0.395666
-0.437431
-0.430546
-0.416828
-0.402474
0.23774
0.231553
0.231478
0.226677
0.226038
0.237941
0.24213
0.244215
0.249281
0.250714
0.242129
0.246616
0.249997
-0.428208
-0.398689
-0.438325
-0.477153
-0.439687
-0.396096
-0.408894
-0.144404
-0.220928
-0.221026
-0.260307
-0.385909
-0.328727
0.215778
0.211044
0.242999
0.42566
0.286334
0.212914
0.294162
0.395894
-0.00198984
0.189862
0.0220354
0.600611
0.490213
0.626348
0.259295
-0.036947
0.120332
0.179893
-0.0320816
0.0433332
0.0556128
-0.0430551
-0.0158169
0.00476441
0.107988
0.00275105
-0.0179098
-0.271441
-0.0827022
0.0489203
0.0324989
0.163185
0.232986
-0.0306788
-0.0945969
-0.125598
0.356763
0.377913
0.401133
0.366435
0.393
0.314061
0.304175
0.323805
0.333822
0.327289
-1.05599
-0.766812
-1.68113
-0.971373
-0.530644
0.25167
0.212212
0.490826
0.3802
0.444743
0.429847
0.39998
0.363405
0.372073
0.405731
0.113564
0.216865
0.193177
0.197975
0.0941021
0.039625
0.333618
0.325151
0.367272
0.3893
0.354107
0.390172
0.247712
0.247296
0.246993
0.243918
0.24223
0.24393
-0.182549
-0.208642
-0.175119
-0.192844
-0.210555
-0.223988
-0.463832
-0.470302
-0.519109
-0.51616
-0.495726
-0.462613
-0.122077
-0.177147
-0.241909
-0.215362
-0.273754
-0.340382
-0.358019
-0.259343
-0.17367
-0.168643
0.136581
0.368688
0.197355
0.36077
0.229392
0.260904
0.237613
0.232232
0.265952
0.127292
0.197138
0.00937329
-0.525755
-0.406444
0.470885
0.53796
0.321498
0.188939
-0.103639
0.0277856
0.286646
0.216482
0.259859
0.330382
0.323748
-0.261477
-0.229462
0.093321
0.295059
-0.0301564
-0.0950168
-0.0806797
0.0799272
0.0324536
)
;

boundaryField
{
    wall-4
    {
        type            zeroGradient;
    }
    velocity-inlet-5
    {
        type            zeroGradient;
    }
    velocity-inlet-6
    {
        type            zeroGradient;
    }
    pressure-outlet-7
    {
        type            fixedValue;
        value           uniform 0;
    }
    wall-8
    {
        type            zeroGradient;
    }
    frontAndBackPlanes
    {
        type            empty;
    }
}


// ************************************************************************* //
