/*--------------------------------*- C++ -*----------------------------------*\
| =========                 |                                                 |
| \\      /  F ield         | OpenFOAM: The Open Source CFD Toolbox           |
|  \\    /   O peration     | Version:  4.0                                   |
|   \\  /    A nd           | Web:      www.OpenFOAM.org                      |
|    \\/     M anipulation  |                                                 |
\*---------------------------------------------------------------------------*/
FoamFile
{
    version     2.0;
    format      ascii;
    class       surfaceScalarField;
    location    "28";
    object      phi;
}
// * * * * * * * * * * * * * * * * * * * * * * * * * * * * * * * * * * * * * //

dimensions      [0 3 -1 0 0 0 0];

internalField   nonuniform List<scalar> 
1300
(
3.75095
5.62643
-5.3728
3.75095
-5.36435
5.62643
-4.4963
4.4963
-1.09933
1.09933
1.87651
1.87445
-3.06657
3.06657
-2.30004
2.30004
-2.55031
2.55031
-5.24645
5.24645
-5.06879
5.06879
4.66401
-4.66401
-3.98664
3.98664
-1.51228
1.51228
-3.99274
3.99274
3.16881
-3.16881
-2.99123
2.99123
-0.318472
0.318472
-0.553188
4.30414
3.19777
3.19777
-2.14735
2.14735
-4.86209
4.86209
6.21768
-6.21768
7.818
-7.818
-2.4452
-3.43191
1.63666
-9.46001
-3.72769
-3.72769
-8.44022
8.44022
-2.81379
2.81264
2.94268
-2.94268
-1.86753
1.86753
-4.41188
-0.0844252
-4.41188
4.51455
-0.0182505
4.51455
-1.22742
0.128092
-1.22742
4.00711
-4.00711
0.936452
0.162879
0.936452
3.06483
-3.06483
-1.87719
3.7537
1.87376
-1.87174
6.17589
-1.87921
3.75366
-5.86744
5.86744
-3.32006
0.253489
-3.32006
2.86352
0.203057
2.86352
-6.64518
6.64518
-2.51441
0.214367
-2.51441
2.21675
0.0832965
2.21675
2.85456
-2.85456
-2.65235
0.102033
-2.65235
2.44936
0.10095
2.44936
0.353693
5.27274
-5.98012
8.79277
-5.27274
0.0262897
5.20833
0.0381193
5.20833
-5.10603
0.0372425
-5.10603
5.01126
0.0575278
5.01126
4.7428
-0.0787889
4.7428
-4.78671
0.122695
-4.78671
-2.87889
-4.52001
-4.45437
0.46773
-4.45437
-1.51068
-0.00160532
-1.51068
1.46604
0.0462435
1.46604
-3.51692
3.51692
-4.33596
0.34322
-4.33596
3.12285
0.045957
3.12285
1.86906
1.88189
5.62001
-5.62001
2.45121
-2.56545
-0.425788
-2.56545
-3.46085
-4.35714
3.46085
-0.46962
-0.585208
0.266736
-0.585208
3.15995
0.0378177
3.15995
2.33034
0.119025
-2.33034
0.182986
3.21749
-3.21749
1.53765
0.6097
1.53765
-5.56751
5.56751
4.95291
0.0583537
-4.95291
0.0908193
6.15698
0.0607056
6.15698
-6.19989
-0.0177952
-6.19989
2.36305
-5.79497
-3.9698
3.73833
0.248309
-3.73833
0.0106347
2.91207
0.0306135
2.91207
-2.92002
2.92002
-2.98318
0.0405
-2.98318
-2.25353
0.386002
-2.25353
1.58047
0.28706
1.58047
-4.28944
-0.122444
-4.28944
-4.45436
0.118397
4.45436
0.060199
1.09238
-1.09238
-1.35092
0.1235
-1.35092
-4.14509
-0.144347
4.14509
-0.137979
-3.86108
-0.146028
-3.86108
-3.02377
0.0405837
3.02377
0.0410627
3.11291
0.0470343
-3.11291
0.0480824
-1.8709
3.75279
-1.88005
3.75381
-5.48304
-0.384393
-5.48304
6.17531
-0.307871
6.17531
3.65635
0.336389
-3.65635
0.336287
2.69057
0.172944
2.69057
-6.6326
-0.0125781
-6.6326
6.53486
0.110322
6.53486
2.57786
0.112714
-2.57786
0.0634477
2.22795
-0.0112042
2.22795
2.85786
-0.00330639
2.85786
-2.86018
0.00562065
-2.86018
2.80017
-2.80017
2.73168
0.0684901
-2.73168
0.0793305
-11.1326
11.1148
-0.0351354
-11.0975
5.17319
5.17319
4.1613
0.581505
4.1613
-5.00178
0.215076
-5.00178
2.428
-6.39781
4.38584
-7.26473
4.22631
-13.6863
3.30383
-7.82384
5.86409
-5.86409
5.19161
0.672484
-5.19161
0.737242
-1.53291
0.0222321
-1.53291
-2.9144
-0.602527
-2.9144
4.17148
-0.65456
4.17148
-3.02854
3.02854
-3.07727
0.0487324
3.07727
0.0455794
2.36297
-0.135016
-2.36297
-0.202478
0.762133
0.174319
-0.762133
0.176924
3.43259
-0.2151
3.43259
-3.01537
-0.202116
-3.01537
-1.54174
0.00882851
1.54174
-0.00408725
-5.81649
0.248973
-5.81649
-11.1908
0.0932926
-11.1527
-6.10659
-6.10659
2.33362
11.1264
-2.88435
0.0241759
2.88435
0.0277171
2.97514
0.0533965
-2.97514
0.0551173
-2.86208
0.0619135
2.86208
0.0579412
-2.63919
0.385666
-2.63919
-1.16898
1.16898
-1.35235
0.183361
1.35235
0.228122
1.32933
-0.236949
1.32933
1.41262
0.0534253
-1.41262
0.0616929
-3.73906
-0.122019
-3.73906
6.40352
-0.228212
6.40352
-2.90466
-0.11071
2.90466
-0.0467998
-0.0333739
11.1482
-5.13982
0.0337865
5.13982
-11.2089
11.2427
-3.2678
0.628602
3.2678
0.8935
5.29086
0.276654
-5.29086
0.289075
6.31596
0.218894
-6.31596
0.451872
-2.43326
-0.481138
-2.43326
-4.912
-0.571045
4.912
-0.740516
-11.4735
-0.20448
11.678
-11.416
6.02097
0.136009
-6.02097
11.3787
-1.06794
-0.0244468
1.06794
0.101049
1.59692
-0.267585
1.59692
3.62524
-0.192651
-3.62524
-0.11382
-6.55773
-0.0748713
6.55773
-0.154212
-1.99421
-0.439046
1.99421
-0.397295
-4.26691
4.30473
1.90898
-1.76345
-4.03151
-6.1206
1.85149
1.90131
4.30269
-8.73101
-4.95531
-8.72037
7.26499
-6.97592
-9.28359
9.2048
7.56125
-7.70728
-5.7872
5.83278
6.48144
-6.44038
1.87902
1.87468
7.88908
-7.63559
-15.6385
15.2541
6.88846
-6.67409
15.7535
-15.7661
-17.9167
18.1356
-5.74113
5.84316
-6.7096
6.71522
-6.88854
6.84174
-1.70619
-5.55854
12.8783
-12.4106
7.16269
-7.58848
-8.47831
8.82153
3.38184
0.922887
3.42887
-1.88237
3.76139
-1.87129
3.78026
4.40407
-6.11026
1.99373
-6.02525
4.16823
2.99446
-3.69861
-2.42198
-5.91655
5.94716
-5.82504
5.88298
8.91603
-9.00046
-1.8851
3.75978
-1.86872
3.77002
-3.42656
-2.36065
3.3806
0.922096
7.32702
5.55129
-7.57533
-1.14504
-7.82412
7.63146
-8.07932
7.87721
-0.440028
5.81688
-5.37685
4.42206
-1.54983
7.36671
5.71516
5.93024
5.86561
-5.58896
1.11031
-6.48716
-6.39634
-2.55314
2.67664
2.50123
-2.33836
5.93447
1.62678
5.79649
-5.56387
-2.14341
-5.68589
3.82192
2.01086
3.87065
4.07559
2.40585
4.11617
3.0309
-3.03501
0.00411572
-3.05624
6.08713
0.724763
-5.41688
-4.49479
4.90867
2.98041
5.11172
-5.46755
-2.16804
-5.13127
-9.50972
-6.12878
-10.0808
10.0892
5.16488
9.78135
-11.969
11.8148
3.8189
3.06956
3.9022
-4.69429
-1.9798
-4.63084
11.9508
-2.87173
-9.07906
-10.3317
-7.58503
10.2213
5.53214
10.9077
7.22792
11.3595
4.55344
7.39735
-10.0856
2.50054
-3.8804
-1.86074
-3.80106
3.71832
2.12485
3.81927
-4.20928
-2.50032
-4.1851
-4.27508
-2.61346
4.27839
2.43683
-4.3492
-3.73013
4.45991
2.38184
4.53445
-9.48976
3.28939
-8.84793
-9.36721
-3.04337
-8.62997
5.60035
1.13161
-6.73196
-0.509917
8.95715
-5.96269
6.53517
-3.93313
-3.65535
-4.1356
-6.75321
-1.7251
-6.63481
-8.83488
8.35374
-9.16851
8.51395
12.7271
-5.72603
-7.00109
-3.96802
-2.47235
3.91994
-0.491066
-3.71169
3.71581
0.0496944
3.82996
4.75284
4.26178
-3.88894
-1.9361
-3.83382
3.83535
2.04763
3.89727
6.72901
2.18702
6.71076
-6.44958
-2.55088
-6.57202
9.06344
-8.67744
2.94386
-2.93503
5.27105
2.60616
-5.05595
-2.76817
6.14259
-3.08899
-3.05359
-12.2092
10.5776
1.63156
-4.84249
-0.420427
-0.101955
-5.49872
-3.78488
5.37602
0.554216
11.1319
7.34698
-5.51183
5.7608
6.16614
6.22449
-0.171848
5.7899
-5.1613
5.34922
-2.43978
-2.90944
5.30521
-5.44955
-1.26682
-5.25601
3.9892
0.34694
1.71865
-1.45192
-2.01914
-0.533998
-1.95745
1.48223
1.01901
1.65655
0.985471
1.69117
-2.93532
0.519093
2.41622
-1.94985
-1.81926
-3.69353
-1.03826
4.73179
5.60502
2.02644
-5.4912
-0.19469
2.73171
-2.68547
-0.813495
-2.88003
2.09166
-2.90515
-3.5769
-1.89005
5.46695
-3.37151
-0.462313
3.31811
0.552541
-3.82454
-2.09201
3.78404
0.332134
-3.12362
6.18876
-3.06515
-5.05972
2.52959
3.55754
4.54045
-4.78952
2.44602
2.34349
-1.23197
4.19198
0.919741
4.36492
-6.68341
4.51537
5.71772
3.10381
-6.05411
0.922843
-5.76056
8.45598
-7.2359
-1.22009
4.12042
4.33556
7.20997
5.51715
-5.77416
12.9841
-1.14637
-6.08952
6.90694
-3.80313
4.70924
-8.51237
-10.2264
4.13686
-9.22763
10.9672
-1.73962
-3.61925
-8.3498
12.8469
-1.20334
-11.6435
8.57801
-4.12221
-4.85319
8.9754
-6.99393
6.83299
-1.78757
-5.04542
-10.0966
-5.66943
10.1715
1.64333
-11.0919
13.5924
-3.69455
3.02734
0.874862
3.01613
3.27379
-5.4117
2.13791
3.72014
-5.50772
2.0685
-7.48021
-7.69406
12.7998
-5.10576
-10.7374
-10.5514
-0.185985
2.60988
10.9826
-9.83781
7.14938
2.68842
3.31346
0.583807
-3.38195
-0.419116
0.282591
4.55988
-4.84247
4.10186
4.22089
3.42941
1.13047
3.83783
2.10933
-3.86555
-0.319559
-4.14093
1.52747
-1.7041
-3.64573
5.1732
-4.08111
0.435378
-2.73211
-3.52706
6.25917
-4.59285
3.04061
3.14815
5.08824
-4.91026
1.3832
-2.40917
-2.50108
2.69791
-4.402
1.94386
3.22934
4.3257
0.595568
7.24765
5.55218
-8.37926
-0.468669
11.1035
-9.95843
3.05004
8.3095
-10.1994
-0.352019
-8.98199
-0.216312
-5.74638
-6.94827
5.02078
-6.74587
-3.49159
6.12163
0.589129
-6.18183
-0.452981
-6.00625
-2.82863
-6.44529
-3.05778
-6.11073
-8.83194
-1.64049
-7.19145
6.71325
-6.65363
-3.42714
7.39415
1.11981
-7.37431
7.34987
-7.4442
7.17662
0.0945192
3.62129
4.3563
1.88394
-2.38932
4.27326
-5.0274
7.21442
-8.43426
3.40686
3.95867
-6.50955
-4.47558
5.04381
4.01963
5.33087
8.9478
-10.4799
1.53206
-10.8386
12.1296
-1.29108
-16.5955
5.75692
-7.64768
2.68049
0.263376
2.70272
0.671936
2.41487
-3.0868
-2.2631
-2.26719
-2.31793
-3.37388
5.69181
1.13132
-3.39284
2.26151
-3.47115
4.60247
-0.0665427
-3.32629
5.25604
-2.84117
5.51942
-3.53769
1.98173
3.30141
5.64422
-2.34281
4.31292
-1.70676
1.82913
-4.17194
-1.54475
-2.98839
5.11324
-3.27077
3.70615
-0.270769
3.97692
-4.07987
0.990877
-0.650462
3.57042
3.75341
4.27088
-3.14041
2.95466
-4.66142
-1.21729
-4.06585
-0.83651
-0.287829
-3.80913
4.09696
6.07544
-6.36327
-5.23731
9.56338
-4.32608
7.73918
-5.39685
-2.34233
-4.25828
-4.41917
3.87261
1.91729
9.65647
0.237333
-5.63419
-4.92396
-4.03046
3.20542
2.1438
-1.94502
3.57658
2.04697
-0.328322
0.584458
1.07209
1.8661
-1.28164
0.202903
1.6632
-1.24901
1.99941
0.732301
-2.05284
0.0953854
-1.39442
3.48607
1.02181
-2.04082
0.759176
1.04367
-3.48345
4.85211
-2.47961
-2.3725
5.89578
1.13841
-3.61803
4.1176
-3.77066
2.31351
-3.35177
-1.30452
-5.07518
-3.4484
-2.50828
4.76979
-3.18353
5.20998
1.19289
-5.01529
6.20818
-3.5395
1.64945
-3.06034
3.79264
-1.06297
-1.99737
2.7663
2.70065
-2.91478
0.0347485
-0.148476
2.30987
-2.45835
-0.595282
-2.54513
-4.5725
4.90463
-2.10661
4.55264
2.16665
-1.91445
6.46709
1.81132
-3.72577
-3.2484
-3.71071
-1.38228
3.15817
-0.415447
-4.2154
-5.46086
4.10268
0.262243
-6.88493
7.71809
-0.833163
-3.90451
-0.610855
4.73127
-5.96851
0.460796
-3.90001
3.81808
4.73782
5.00007
-11.4371
-0.206407
-6.27225
1.19256
-7.4648
5.52812
-3.65693
7.79379
-10.447
7.01987
-9.3272
6.57371
-0.891096
6.23829
-4.10038
2.84077
-8.5102
-6.86686
5.46216
-2.3926
6.33702
-2.88824
9.22526
-6.58279
4.76174
4.46352
-1.15452
-2.98108
-4.66177
3.50725
0.0999654
3.1161
4.97297
-2.86364
4.65341
2.24891
-4.65809
-2.15309
-6.49908
1.841
-3.35093
-1.91371
3.75471
3.17453
3.75834
1.25362
-3.33922
9.17518
-9.36117
-4.06942
-2.87886
4.63362
-1.12637
4.76811
-7.64696
-0.978272
4.91825
-0.868139
-4.05011
0.807778
-4.29937
1.64721
-5.94658
5.09867
-5.55165
2.1686
-9.81629
-5.20571
-5.10466
-2.21993
-5.22427
-7.64557
5.42564
-1.88865
5.46122
-8.64767
7.77953
-3.48198
8.90762
-5.41181
-1.03348
5.80911
1.36751
10.2751
0.180289
-4.65587
-1.92497
4.01371
-2.08874
1.28045
-3.62884
0.384867
2.44968
3.4461
-6.43888
-0.0706772
-4.72655
-3.93136
7.951
5.63202
11.7075
1.2276
9.14115
-1.19015
10.3687
4.14072
4.36884
-3.05243
4.58448
1.04453
4.45139
-0.844417
2.82614
1.8583
1.8567
0.828773
2.29479
1.45862
3.28567
0.198866
-2.06832
4.63456
-8.66503
-0.999622
-8.08352
1.12128
5.82819
-4.70691
3.14547
-1.00167
1.05673
0.117723
-1.66425
1.54653
-2.79171
-1.99257
-0.329376
-1.59827
2.35744
1.88781
-2.02807
-0.763647
0.323872
-3.77227
3.0279
-2.99315
-0.292503
5.91568
-2.73162
0.27327
-1.08217
-2.27186
-2.80586
2.71047
6.17612
0.290963
3.11098
5.19559
3.10359
0.23995
3.94523
-5.68484
-3.53498
-5.89125
-0.363128
4.36815
1.64566
9.3369
6.10918
4.98281
-2.66415
-12.0253
6.54594
-1.96146
5.25486
-1.20475
-4.74183
4.94993
2.26449
-5.53906
-0.012592
-4.75442
-6.71588
-0.573958
8.35349
-9.70117
8.66769
5.83905
1.3524
-4.40069
-0.703973
4.21733
0.151515
10.5203
-1.17653
-6.76152
7.93805
-4.65166
3.65203
0.811509
2.76507
2.35804
1.35637
-5.40515
-10.1121
-1.91525
-1.5682
-4.28775
0.444041
-2.33185
6.2838
-2.63176
3.94146
5.30628
6.36301
-2.15348
-4.20979
6.47956
-2.5381
3.82492
)
;

boundaryField
{
    wall-4
    {
        type            calculated;
        value           uniform 0;
    }
    velocity-inlet-5
    {
        type            calculated;
        value           uniform -3.75095;
    }
    velocity-inlet-6
    {
        type            calculated;
        value           uniform -5.62643;
    }
    pressure-outlet-7
    {
        type            calculated;
        value           nonuniform List<scalar> 8(5.3728 5.36435 5.87711 7.82335 7.3989 6.33286 6.81384 7.53014);
    }
    wall-8
    {
        type            calculated;
        value           uniform 0;
    }
    frontAndBackPlanes
    {
        type            empty;
        value           nonuniform 0();
    }
}


// ************************************************************************* //
