/*--------------------------------*- C++ -*----------------------------------*\
| =========                 |                                                 |
| \\      /  F ield         | OpenFOAM: The Open Source CFD Toolbox           |
|  \\    /   O peration     | Version:  4.0                                   |
|   \\  /    A nd           | Web:      www.OpenFOAM.org                      |
|    \\/     M anipulation  |                                                 |
\*---------------------------------------------------------------------------*/
FoamFile
{
    version     2.0;
    format      ascii;
    class       volVectorField;
    location    "28";
    object      U;
}
// * * * * * * * * * * * * * * * * * * * * * * * * * * * * * * * * * * * * * //

dimensions      [0 1 -1 0 0 0 0];

internalField   nonuniform List<vector> 
918
(
(0.985096 -0.000547759 0)
(0.00477969 2.96626 0)
(-0.0384499 1.41768 0)
(0.979825 0.00241007 0)
(0.00702612 1.40545 4.00175e-20)
(-0.00704794 2.94891 -8.43505e-19)
(0.838031 1.19255 2.78299e-19)
(0.362895 0.172485 -4.13933e-21)
(0.999903 -0.000309329 0)
(0.0544393 0.889151 0)
(0.0204185 0.655791 0)
(0.72785 -0.00634813 0)
(0.0115174 2.93017 0)
(0.00235149 2.79514 0)
(-0.0191448 3.15539 4.51752e-19)
(-0.0305468 1.191 1.03813e-19)
(0.46048 0.06808 2.61591e-19)
(0.170794 1.2397 2.34857e-19)
(0.96197 0.00386666 0)
(-0.0531137 0.855927 0)
(0.0972562 0.202551 -2.04425e-19)
(1.00219 -0.00520907 0)
(1.00075 -0.010164 0)
(0.975953 -0.00652288 0)
(0.603958 -0.0385445 0)
(0.018552 2.63553 0)
(-0.0150101 2.91026 2.80217e-19)
(-0.105731 1.34275 0)
(-0.114617 1.55355 0)
(-0.0605463 1.38401 0)
(0.0119764 2.10704 0)
(0.0761213 1.45475 -3.10165e-20)
(0.0382012 1.14148 0)
(-0.0204541 2.98751 -2.96228e-23)
(-0.0169861 3.0054 6.7005e-19)
(0.00201246 3.00015 0)
(0.869971 -0.0088307 0)
(0.437056 0.975772 6.46118e-21)
(0.80882 1.21212 -3.72449e-19)
(0.957775 1.04547 3.57927e-19)
(0.677407 1.31177 -6.4319e-20)
(0.681729 1.29944 3.64157e-19)
(0.404967 0.264048 4.03608e-21)
(0.389773 0.15527 0)
(1.15384 0.582478 0)
(0.371296 0.263263 1.86205e-20)
(0.315312 0.174742 -1.93346e-20)
(0.919498 -0.00735381 0)
(1.0003 0.000146743 0)
(0.99992 0.000342167 0)
(1.00351 -0.00769317 0)
(1.00095 -0.000957066 0)
(1.00019 1.47021e-05 0)
(0.0693068 1.76503 -1.28405e-19)
(0.0428072 1.03264 0)
(0.068847 0.971677 0)
(0.0179087 0.971317 0)
(0.0377124 0.817536 0)
(0.0216872 1.97864 0)
(0.0312745 0.80151 0)
(0.00316835 0.713065 0)
(-0.0096921 0.738784 0)
(-0.0140689 0.629333 0)
(0.833064 -0.014196 0)
(0.851602 0.0262757 0)
(0.763477 0.00221558 0)
(0.826251 0.0308379 0)
(0.698529 -0.0130975 0)
(0.0153356 3.00066 3.03006e-19)
(0.0116923 3.00836 0)
(0.00650344 3.00256 0)
(0.0141415 2.9972 3.35132e-24)
(0.00837234 2.95852 -4.57948e-19)
(0.0152024 2.98191 0)
(0.0112414 2.90366 0)
(0.0251885 2.93045 5.98196e-25)
(0.0049753 2.82529 0)
(0.0316737 2.91596 0)
(-0.00513661 2.74468 0)
(0.305691 3.55062 0)
(-0.145805 3.62772 0)
(0.136891 3.24801 -4.16989e-19)
(-0.0104001 2.98652 0)
(-0.208288 1.97842 0)
(-0.0332193 1.42924 -1.02347e-19)
(-0.11552 1.3368 8.17196e-20)
(0.538477 0.154423 -9.02867e-20)
(0.456103 0.0465093 -8.71637e-20)
(0.523043 0.17951 -2.72066e-19)
(0.440966 0.0930658 -1.8205e-19)
(0.18103 0.895631 0)
(0.249581 1.36941 -2.44273e-19)
(0.368381 1.33068 4.05076e-19)
(0.987378 0.0081629 0)
(0.941415 0.00543114 0)
(1.00031 0.000423266 0)
(1.00326 0.00948929 0)
(1.00289 0.00781319 -5.6535e-19)
(0.99178 0.00991379 4.31555e-19)
(-0.0668021 0.913779 0)
(-0.0356081 0.734584 0)
(-0.11381 1.28936 0)
(-0.0579071 1.05521 0)
(-0.0292487 1.01072 0)
(0.152954 0.213603 6.3296e-20)
(0.202646 0.193812 0)
(0.99334 -0.00828472 0)
(0.954424 -0.00612824 0)
(0.785045 0.0342869 0)
(0.743561 0.0428024 0)
(0.665171 -0.0299813 0)
(0.954666 -0.00029804 0)
(0.676018 0.0635754 0)
(0.512143 -0.0120123 3.55202e-19)
(-0.0362016 2.86393 1.53355e-19)
(0.0424477 2.90861 0)
(0.0557279 2.88434 0)
(-0.00505656 2.69798 0)
(-0.0134938 2.98516 2.57703e-19)
(-0.0181637 2.89526 0)
(-0.0158591 2.98803 -8.16258e-19)
(-0.0131695 2.92539 2.82741e-19)
(-0.217148 1.56337 0)
(-0.206424 1.68748 0)
(0.038651 1.35854 3.72738e-21)
(0.0770444 1.33144 0)
(-0.0140078 1.12197 0)
(0.937437 -0.00796349 0)
(0.855953 -0.00849728 0)
(0.863058 0.00643226 0)
(0.948772 -0.00792724 0)
(0.883349 -0.00741425 0)
(0.546447 1.17098 -1.2093e-20)
(0.597156 1.21007 0)
(0.403512 0.927473 4.68252e-21)
(0.343579 0.784699 0)
(0.921519 1.08292 -1.02095e-19)
(1.03286 0.887417 2.10491e-19)
(0.369629 1.40829 0)
(0.533514 1.37804 0)
(0.532623 1.3421 0)
(0.115598 0.191313 -7.13972e-20)
(0.449399 0.248714 0)
(0.425605 0.135685 5.18442e-20)
(1.00895 0.94067 0)
(1.0825 0.793572 0)
(1.10485 0.736191 -1.83864e-19)
(1.13193 0.635702 0)
(1.1771 0.418521 2.4502e-20)
(0.957467 -0.00839059 0)
(0.962226 -0.0101843 0)
(0.901932 -0.00752927 0)
(0.984283 -0.00923129 0)
(0.974723 -0.00930597 0)
(0.93738 -0.0059925 0)
(1.00018 0.00213021 0)
(1.00087 0.00144893 0)
(0.99986 0.000905663 0)
(0.0292959 2.03476 7.80768e-20)
(0.0960943 1.70895 0)
(0.00949493 2.14359 8.36519e-20)
(0.0506927 1.83623 -4.71333e-20)
(0.124336 1.23429 -1.94247e-19)
(0.0438291 1.10776 0)
(0.0868461 1.10511 0)
(0.0316386 0.913175 0)
(0.00602234 0.760427 0)
(-0.0111376 2.1702 8.62964e-22)
(0.0274965 1.97015 0)
(-0.0366578 2.13982 5.88013e-20)
(-0.00820554 1.96038 -1.17129e-19)
(0.0136462 0.882233 0)
(0.0142524 0.850293 0)
(0.00107257 0.721148 0)
(-0.0169035 0.735945 0)
(-0.0239302 0.631412 0)
(0.929518 0.0073516 0)
(0.835434 -0.0155989 0)
(0.922951 -0.00174947 0)
(0.836744 -0.0113544 0)
(0.811443 0.00387927 0)
(0.903294 0.0182736 0)
(0.881594 0.0216755 0)
(0.787714 0.00301227 0)
(0.0040726 3.06426 -2.5354e-21)
(0.01689 3.05777 0)
(0.0153333 2.96903 0)
(0.00883805 2.87621 0)
(0.96535 3.98915 0)
(1.3105 3.25229 4.82221e-19)
(0.0693656 3.07738 0)
(-0.025563 2.90838 0)
(-0.287233 1.69667 0)
(-0.292262 1.93416 0)
(-0.241326 1.81485 0)
(-0.0538145 2.13026 -1.14405e-20)
(-0.221379 2.06818 0)
(-0.125199 2.0181 0)
(-0.108896 1.79093 -3.01926e-21)
(-0.132146 1.79448 -5.08672e-20)
(-0.121434 1.58927 -8.35157e-20)
(-0.141067 1.57828 0)
(0.566942 0.127108 1.3317e-19)
(0.470063 0.0215621 -1.30319e-19)
(0.270481 1.54035 0)
(0.236759 0.680457 -9.005e-20)
(0.176828 1.63535 -2.9572e-19)
(0.199104 1.15695 2.96482e-19)
(0.902001 0.00602169 0)
(0.967491 0.0106775 0)
(0.974496 0.0105848 0)
(0.923415 0.00596497 0)
(-0.0177306 0.751614 0)
(-0.0357351 0.807875 0)
(-0.0419519 0.680889 0)
(0.316769 0.256941 1.706e-19)
(0.259921 0.230474 -2.03852e-19)
(0.265842 0.186259 0)
(1.08432 0.0878263 8.29314e-22)
(1.06469 0.0402593 0)
(0.993952 0.0421108 0)
(0.889006 0.00033367 0)
(0.594608 0.0958385 0)
(0.619631 0.0701115 -5.7211e-19)
(0.48844 0.00311114 2.17869e-19)
(0.00912331 2.98155 1.85954e-19)
(-0.0327932 2.86727 1.93454e-20)
(0.00197474 3.04959 -5.46333e-21)
(0.0207637 3.04326 2.03385e-19)
(-0.0153682 2.9963 9.38474e-21)
(-0.0128068 2.94951 -3.80458e-23)
(-0.0175437 3.0115 -1.76413e-19)
(0.014201 3.02305 1.26908e-19)
(0.00667981 3.03665 -2.03019e-19)
(0.930821 -0.00240067 0)
(0.937689 -0.00342542 0)
(0.842356 -0.00820533 0)
(0.956622 0.0114528 0)
(0.943128 0.0125958 0)
(0.88153 0.00571226 0)
(0.918955 0.0151819 0)
(0.926976 0.0142787 0)
(0.83887 0.00470926 0)
(0.762429 1.43768 1.26793e-19)
(0.805547 1.52964 0)
(0.241626 0.397389 1.60777e-20)
(0.22127 0.689231 1.27371e-19)
(0.285629 0.762923 -7.58087e-20)
(0.314453 0.591052 1.4176e-19)
(0.311441 0.77001 3.85456e-19)
(0.118222 0.226482 9.64311e-20)
(0.495471 0.203429 1.9426e-19)
(0.472177 0.221781 4.93107e-20)
(0.43452 0.116846 9.79711e-20)
(1.16714 0.473785 1.00262e-19)
(1.17445 0.270633 1.03812e-19)
(0.00994726 2.18402 1.60934e-20)
(0.0372154 1.89231 0)
(0.952668 0.0313475 0)
(0.927342 0.0130676 0)
(0.851343 -0.0130624 0)
(0.0110449 3.07445 0)
(0.020491 2.94387 3.49257e-19)
(0.0172153 2.95627 0)
(0.00658635 2.85073 -3.48107e-19)
(0.00553165 3.09082 8.0732e-20)
(0.00608304 3.08217 0)
(0.891059 1.83383 -9.73859e-20)
(1.27571 2.38536 2.1195e-19)
(0.87132 1.93791 -5.68224e-19)
(0.0204351 2.98264 -1.42455e-19)
(0.036553 3.00416 0)
(-0.0325702 2.88067 0)
(-0.0643027 2.06914 1.69213e-21)
(-0.11651 1.96194 1.0853e-19)
(-0.0454977 1.91324 3.13109e-21)
(0.277393 1.35864 2.94002e-19)
(0.189764 0.473356 -2.00991e-19)
(0.0554792 1.96401 2.04519e-19)
(0.154004 1.85501 -2.58945e-19)
(0.146165 1.43468 3.89526e-20)
(0.000889356 3.11866 -4.76647e-19)
(0.0161242 3.11759 5.36276e-19)
(-0.00949864 2.9811 2.24736e-19)
(-0.00376831 2.97805 -2.01159e-19)
(-0.0212685 2.88216 -2.2901e-19)
(0.00772407 3.09941 -5.93541e-19)
(0.00157467 3.10581 5.94717e-19)
(0.254727 0.692103 0)
(0.223514 0.686612 -2.60277e-19)
(0.138001 0.256922 1.17221e-19)
(0.325741 0.878267 2.87988e-19)
(0.169284 0.251574 -4.44093e-19)
(1.1692 0.178111 -1.27297e-20)
(1.17587 0.319392 0)
(1.15468 0.127826 3.84048e-20)
(-0.00539523 2.18585 6.26947e-22)
(0.00536186 2.20186 0)
(0.0138805 1.94294 0)
(0.345713 1.24763 -1.06784e-19)
(0.362693 1.07335 -2.27754e-19)
(0.17607 0.338988 3.93748e-19)
(1.00554 -0.0111993 0)
(1.00751 -0.00745668 1.04182e-19)
(-0.236423 1.51685 0)
(-0.239519 1.43239 0)
(1.00196 0.00345177 7.95034e-22)
(1.00389 0.0100599 2.12055e-19)
(-0.0663544 2.16629 1.50464e-20)
(-0.0395451 2.20692 0)
(0.0364337 3.18013 6.87436e-20)
(0.389098 3.48561 0)
(1.1435 0.642972 1.64634e-20)
(1.01324 0.0135127 -7.74584e-22)
(1.02097 -0.0108444 0)
(1.00176 0.00015231 3.2201e-23)
(0.103802 1.34949 0)
(0.157855 2.57111 0)
(0.10833 1.18611 0)
(-0.000928011 2.61814 -6.5084e-20)
(-0.0398594 2.59909 -6.72646e-20)
(1.00744 0.0303076 1.0596e-21)
(1.05984 -0.000268577 0)
(1.08485 0.0135942 0)
(-0.309915 1.94829 0)
(-0.209228 2.49572 0)
(-0.206894 1.12999 0)
(0.287815 1.45613 -1.57231e-19)
(1.01122 -0.00997141 0)
(1.00935 -0.0153664 0)
(1.00247 0.000657933 1.32087e-19)
(1.00539 -0.00477777 -1.57069e-19)
(1.0012 -0.00110088 0)
(-0.374754 1.79499 0)
(-0.303533 1.54246 0)
(-0.317865 1.70371 0)
(-0.218657 1.12734 0)
(-0.266618 1.2832 0)
(-0.1919 1.14903 0)
(1.03391 -0.00727621 0)
(1.02128 0.0162448 -3.78088e-22)
(0.797232 1.2443 1.85504e-19)
(1.00221 0.00042298 -1.31699e-19)
(1.00404 0.00534903 1.57665e-19)
(1.00116 0.00209646 0)
(1.01345 0.0105348 1.29194e-19)
(1.00855 0.00865199 -1.59029e-19)
(1.00933 0.0156595 0)
(-0.191184 2.48846 0)
(-0.111086 2.35011 -1.09787e-19)
(-0.113222 2.36338 9.0282e-20)
(1.20317 0.251455 2.21876e-20)
(1.13817 0.0833299 0)
(0.0479686 3.07565 -2.42957e-19)
(0.0664436 2.85078 -1.86319e-20)
(0.145464 3.19479 3.91669e-19)
(0.141508 3.22491 -1.19261e-20)
(0.133783 3.23657 0)
(0.0207217 3.1376 5.63342e-20)
(0.0783947 3.16113 2.34403e-19)
(0.0702889 3.18688 -1.0925e-19)
(0.0244126 3.12919 0)
(0.668804 0.30696 0)
(0.577177 0.363763 0)
(1.09606 0.662672 -7.10225e-20)
(1.12441 0.798363 1.16737e-19)
(1.15963 0.554401 0)
(1.20459 0.504422 0)
(1.01638 0.0136289 -2.42601e-19)
(1.01511 0.0147697 3.03178e-19)
(1.02504 -0.0102832 0)
(1.02284 -0.0129322 0)
(1.00641 0.00248423 0)
(1.01016 0.00355936 0)
(1.00445 0.00185543 0)
(1.00979 0.00595532 0)
(1.00817 0.00612834 0)
(1.00441 0.00445028 0)
(0.0929935 1.34768 0)
(0.0909605 1.3133 0)
(0.114475 1.37426 0)
(0.132198 1.40088 0)
(0.147277 2.59317 0)
(0.189629 2.6506 -1.05161e-19)
(0.0995232 2.65014 0)
(0.0939268 2.65173 1.19108e-20)
(0.0379427 2.68051 5.99071e-20)
(0.119366 1.14399 0)
(0.0634797 1.00884 0)
(0.111475 1.23569 0)
(0.0186544 1.19425 0)
(0.0352825 1.98126 7.89344e-20)
(-0.0531401 2.61753 -8.84294e-20)
(-0.018836 2.65669 -9.96665e-20)
(-0.0359272 2.66388 0)
(-0.0882507 2.63685 1.9155e-19)
(-0.0976405 2.62137 1.2767e-19)
(0.00273179 2.03984 -5.24452e-20)
(-0.0480982 2.47222 1.15912e-19)
(-0.00298218 2.46732 1.2025e-19)
(1.01598 0.0359273 2.40491e-19)
(1.01044 0.0201529 -2.97791e-19)
(1.00776 0.0416911 -2.44925e-19)
(0.990669 0.0222698 3.13762e-19)
(1.06075 0.00449992 0)
(1.04668 -0.0105485 0)
(1.08482 0.022 0)
(1.06862 0.00580816 0)
(1.06519 -0.00670139 0)
(1.11979 0.0796214 0)
(1.0966 0.0374159 0)
(1.09965 0.0279189 0)
(-0.185577 2.23906 4.89387e-21)
(-0.328581 2.12013 0)
(-0.24656 2.11744 0)
(-0.22799 2.5885 -7.95154e-20)
(-0.228615 2.54588 2.36499e-21)
(-0.402936 1.92575 -8.85494e-20)
(-0.361198 1.80987 8.88177e-20)
(-0.358564 1.489 0)
(-0.374472 1.52198 0)
(-0.360815 1.55606 0)
(-0.182325 1.10202 0)
(-0.0711979 0.937628 0)
(0.370936 1.47053 2.97122e-19)
(0.414287 1.48115 1.20278e-19)
(0.588225 2.43699 -7.09697e-20)
(0.408192 2.53402 1.95904e-19)
(0.348835 2.08915 -1.24183e-20)
(1.02097 -0.00829548 0)
(1.01542 -0.0100195 0)
(1.01482 -0.0161522 0)
(1.00745 -0.00146596 0)
(1.00499 -0.0011662 0)
(1.00769 -0.00474921 0)
(1.00914 -0.00391938 0)
(1.01404 -0.0045832 0)
(1.02227 0.0160232 2.34693e-19)
(1.01846 0.0163242 -2.98149e-19)
(1.02264 0.018 -2.33286e-19)
(1.02025 0.0171928 2.9265e-19)
(0.762949 1.296 0)
(0.69937 1.35027 2.19824e-19)
(0.867506 1.20179 1.25343e-19)
(0.928969 1.14604 -1.66702e-19)
(1.16039 2.60837 -1.69933e-19)
(0.831946 0.0998867 1.40809e-19)
(1.13226 0.107706 0)
(1.18415 0.189671 -1.47375e-20)
(1.17282 0.152562 -5.99614e-22)
(0.997607 0.12633 0)
(0.161089 2.96019 6.9469e-20)
(0.118746 2.86683 -3.35482e-19)
(0.0326647 2.37667 2.16438e-19)
(0.0966468 0.0466158 -8.64142e-20)
(0.337127 3.42636 -1.64839e-19)
(0.195701 3.32124 0)
(0.228352 3.35859 2.14523e-19)
(0.25741 3.04086 -3.5395e-19)
(0.361068 3.20196 0)
(0.00615706 3.12062 1.24108e-20)
(0.0157893 3.12939 -1.58338e-19)
(0.0145931 3.12529 2.32214e-19)
(0.0363082 3.14018 0)
(0.0347238 3.1506 0)
(1.19419 2.64916 0)
(0.551573 0.842879 -1.17539e-19)
(1.05353 0.968722 -6.47827e-20)
(0.958841 1.05967 0)
(0.803475 0.942159 8.51071e-21)
(1.04076 0.869695 1.11684e-20)
(0.360302 0.419466 -2.42129e-19)
(0.70293 0.326089 -8.65801e-21)
(0.691448 0.252895 1.06964e-19)
(0.586976 0.407816 8.1601e-21)
(0.510635 0.370774 -3.32618e-19)
(0.671848 0.355934 0)
(0.700586 0.43145 1.75653e-19)
(0.706624 0.425098 0)
(0.62157 0.396417 0)
(0.610538 0.312961 0)
(0.779484 0.609158 7.53761e-20)
(1.18685 0.278053 -2.94102e-20)
(1.19497 0.408538 0)
(1.22021 0.351465 0)
(0.768155 0.203728 1.58417e-19)
(0.826112 0.542484 -9.1122e-20)
(0.733958 0.519518 1.52361e-19)
(0.925674 0.41591 -1.50285e-19)
(1.02036 0.0145104 1.6012e-19)
(1.01826 0.0142907 -1.62717e-19)
(1.01592 0.0163269 0)
(1.03537 -0.00672841 0)
(1.02924 -0.00916136 -1.48406e-19)
(1.02696 -0.0132862 1.47146e-19)
(1.02534 0.00906752 0)
(1.02378 0.012828 0)
(1.01125 0.00382825 0)
(1.01441 0.00868829 0)
(1.01476 0.00372985 0)
(1.01384 0.00283606 0)
(0.0693527 1.3333 0)
(0.0593655 1.27984 0)
(0.149655 1.32836 1.07372e-19)
(0.266117 1.45515 8.98801e-20)
(0.153289 1.43137 1.96989e-19)
(0.187939 1.44097 -3.17801e-19)
(0.172823 1.36441 0)
(0.121257 1.59152 8.89075e-20)
(0.108039 1.55784 0)
(0.35119 2.03863 1.79457e-20)
(0.355801 2.38158 1.14957e-19)
(0.184074 1.43569 -7.77515e-20)
(0.253883 1.35354 6.44918e-20)
(0.193808 1.34431 -5.16539e-20)
(0.255275 1.29636 9.75217e-20)
(0.223401 1.57623 0)
(0.251996 1.60819 -5.78018e-20)
(0.0444047 2.27496 3.10085e-20)
(0.0412822 2.67048 0)
(0.0631266 2.40989 -4.87833e-20)
(0.0489668 2.4312 0)
(0.0754233 2.66326 -1.36812e-20)
(0.0495349 2.69679 0)
(0.164714 1.47673 1.24898e-19)
(0.0763662 1.52607 0)
(0.0806374 1.4 0)
(0.175548 1.38603 -1.40322e-19)
(-0.00668692 2.64514 -1.39654e-20)
(0.0228977 2.69424 -7.99251e-20)
(0.00760114 2.71392 -5.17952e-22)
(0.106709 2.01558 -1.12541e-19)
(0.102099 1.73519 -3.96314e-20)
(0.0271458 0.991604 0)
(0.0126719 0.892933 0)
(0.0356093 1.57753 -1.47707e-19)
(0.0625295 1.43661 -1.49465e-19)
(0.0652586 1.54223 1.88886e-19)
(0.0354151 1.59255 0)
(-0.277954 2.41535 3.22403e-19)
(-0.244873 2.59967 -1.22088e-19)
(-0.265439 2.57421 3.53643e-20)
(0.0522647 2.03322 1.36004e-19)
(-0.159986 2.59874 5.47111e-20)
(-0.0618411 2.5299 -1.58942e-19)
(1.02147 0.0204664 -1.57529e-19)
(1.01894 0.0258784 1.58804e-19)
(1.01598 0.0176951 0)
(1.01922 0.0601571 2.2366e-19)
(0.99738 0.0529982 -2.58796e-19)
(0.961182 0.0316666 2.96123e-19)
(1.01826 0.088059 -2.93337e-20)
(1.04151 -0.00658783 0)
(1.04894 -0.00298105 1.36485e-19)
(1.03771 -0.0112549 -1.36109e-19)
(1.06715 0.0312784 -7.67062e-21)
(1.0605 0.0147296 6.75274e-20)
(1.06298 0.0425747 0)
(1.05778 0.0371456 -2.4773e-20)
(1.03532 0.0356697 0)
(1.02986 0.0330502 0)
(1.0274 0.0121897 0)
(1.02462 0.0153261 0)
(1.04005 0.0272216 5.13094e-20)
(1.03784 0.0214652 -1.1566e-19)
(1.05123 0.023914 -5.31783e-20)
(1.0497 0.0239195 -6.00491e-20)
(1.07208 0.0502161 1.1177e-19)
(1.08321 0.0443026 0)
(1.09339 0.0900299 0)
(-0.312208 2.39957 1.05393e-19)
(-0.35129 2.16457 7.72759e-21)
(-0.340653 2.21196 0)
(-0.244392 2.41613 -1.05716e-19)
(-0.209414 2.29025 -1.2233e-20)
(-0.222316 2.36309 1.92454e-20)
(-0.149021 2.64371 -1.05084e-19)
(-0.209313 2.61634 9.82381e-21)
(-0.205264 2.60408 -4.0824e-20)
(-0.213712 2.61949 6.89727e-20)
(-0.18742 2.59209 -8.44858e-20)
(-0.424628 1.73505 -8.78734e-21)
(-0.368227 1.95981 -1.64295e-19)
(0.355439 1.40202 -1.45262e-19)
(0.353562 1.35204 -1.31014e-19)
(0.643402 1.39987 -2.12491e-19)
(0.510031 1.46685 -1.16178e-19)
(0.568265 1.44044 0)
(0.579424 2.41274 6.0622e-20)
(0.650425 2.40397 1.04214e-19)
(0.406263 2.5106 3.54598e-20)
(0.40783 2.55828 -9.18382e-20)
(0.523039 2.51653 1.316e-19)
(0.540326 2.45121 0)
(0.479896 2.50204 -1.6316e-19)
(0.236132 2.58101 2.91251e-19)
(0.348473 2.56311 -3.21107e-20)
(0.2827 2.64104 -4.24041e-19)
(0.916836 2.38159 1.47241e-19)
(0.810755 2.38429 0)
(1.01099 -3.62644e-05 5.23939e-21)
(1.01521 -0.00551332 -4.33732e-21)
(1.01732 -0.00357347 -7.76967e-20)
(1.01471 -0.0011027 7.85813e-20)
(1.01215 0.000679633 0)
(0.626752 1.26552 0)
(0.636795 1.15042 0)
(0.734533 1.05527 0)
(0.634815 1.11733 0)
(1.18583 2.62067 2.69374e-20)
(1.07652 2.36552 0)
(0.85678 2.20335 -2.29913e-22)
(0.822346 2.47083 0)
(0.918032 2.5565 -2.15015e-20)
(0.956436 2.51368 1.3983e-20)
(0.83607 0.149071 0)
(0.810556 0.134049 3.96793e-20)
(0.925667 0.12228 2.13419e-19)
(0.852821 0.114883 -8.34407e-20)
(0.841697 0.0611674 -2.53168e-19)
(1.04977 0.219935 -1.55752e-19)
(0.975552 0.281562 -6.32934e-21)
(0.906928 0.265308 1.96043e-19)
(0.989938 0.2035 1.519e-19)
(0.943651 0.159934 -2.7356e-19)
(0.91719 0.169416 3.48449e-20)
(0.940193 0.226753 -7.05793e-20)
(0.921895 0.19296 0)
(0.984236 0.16073 1.32436e-19)
(1.03279 0.168871 0)
(1.02673 0.198636 0)
(1.08451 0.113234 4.95486e-20)
(1.0642 0.162043 -5.67645e-21)
(1.0473 0.223249 -2.61172e-20)
(1.0847 0.196872 0)
(1.02553 0.0402693 1.20929e-19)
(1.04747 0.0491282 1.44318e-19)
(1.03713 0.0366586 -1.18874e-19)
(1.04878 0.0552932 -9.71855e-20)
(1.02207 0.0627849 -1.57828e-19)
(0.98803 0.127106 0)
(1.00535 0.0845681 0)
(0.973332 0.0496248 -1.06367e-19)
(0.92759 0.0608159 4.31526e-20)
(1.04102 0.0856451 1.36238e-19)
(1.0636 0.110027 -1.46956e-19)
(1.0696 0.137603 1.31147e-19)
(1.02902 0.130205 0)
(1.07064 0.0970224 0)
(1.05954 0.0754489 -6.07992e-20)
(1.05146 0.0836092 -1.1004e-19)
(0.588069 1.09687 -1.83107e-20)
(0.629005 1.40645 5.45461e-20)
(1.1641 2.74537 1.48518e-20)
(1.2402 3.07976 -2.75486e-20)
(1.25183 2.7178 2.05526e-19)
(1.28265 2.71568 -1.37904e-19)
(1.16941 2.35941 8.47442e-21)
(1.22851 2.97439 5.5996e-20)
(1.24966 2.94376 -4.77071e-20)
(1.24587 3.23579 -1.29262e-19)
(1.36882 2.97341 1.49556e-19)
(1.30805 2.89767 0)
(0.54977 0.846911 -8.39168e-21)
(0.123592 1.26039 1.79591e-19)
(0.544102 0.477013 1.61557e-19)
(0.355016 0.228305 1.70203e-19)
(0.527002 0.412965 1.87691e-19)
(0.547936 0.484043 -2.99724e-19)
(0.541381 0.501426 2.45859e-19)
(0.49273 0.42417 -9.62016e-20)
(0.421918 0.358967 2.19155e-19)
(0.768828 0.259116 -8.91669e-20)
(0.727818 0.290489 0)
(0.724197 0.230342 3.8607e-21)
(0.718523 0.522248 9.05661e-20)
(0.691164 0.486102 -3.34484e-19)
(0.599911 0.491769 5.80963e-21)
(0.618423 0.473943 0)
(0.665518 0.732966 8.20675e-20)
(0.820674 0.772226 4.57525e-20)
(0.741698 0.85206 -5.62852e-20)
(0.854283 0.796752 -1.69746e-20)
(0.880004 0.824386 1.64102e-21)
(0.887246 0.828682 -1.68584e-21)
(0.827878 0.631471 -1.27789e-19)
(0.898383 0.698248 1.58215e-20)
(0.949838 0.700546 0)
(0.931022 0.668225 -2.22132e-20)
(1.00111 0.306231 3.70152e-20)
(1.09081 0.281467 2.76333e-20)
(1.03365 0.257093 6.26533e-20)
(0.984435 0.349672 -8.11792e-20)
(1.02456 0.41435 0)
(1.06842 0.400017 0)
(0.898295 0.345558 2.50168e-21)
(0.838717 0.286997 0)
(0.859144 0.2769 9.73206e-20)
(0.896576 0.272604 -3.92685e-21)
(0.915196 0.417796 4.14313e-19)
(0.873363 0.483105 1.06763e-19)
(0.875856 0.446737 -1.28768e-19)
(0.804333 0.434959 1.38236e-19)
(0.789174 0.437032 9.06033e-20)
(0.755348 0.421092 -8.81789e-20)
(1.02785 -0.000816077 1.26089e-19)
(1.02006 -4.63026e-05 0)
(1.01855 0.00077815 8.4177e-20)
(1.02096 -0.00226367 -1.8898e-19)
(1.02205 0.00436326 9.19994e-20)
(1.02043 0.0108706 -1.93794e-19)
(1.02156 0.0103379 0)
(1.0214 0.0102651 -4.0394e-20)
(1.01601 0.00758386 1.01158e-19)
(1.01695 0.0100606 -5.1286e-20)
(1.0176 0.00933409 3.76915e-20)
(0.0747351 1.29715 0)
(0.0802127 1.35666 0)
(0.0555028 1.31614 0)
(0.0423078 1.25036 0)
(0.0624296 1.37295 -2.38169e-19)
(0.0836771 1.33958 7.77545e-20)
(0.110168 1.49835 4.95898e-20)
(0.0859526 1.33755 -5.47664e-20)
(0.0431715 1.45617 1.49724e-19)
(0.038836 1.44263 -1.13543e-19)
(0.0571416 1.35857 1.89808e-22)
(0.0568538 1.36312 1.45499e-19)
(0.0576831 1.34197 2.12258e-20)
(0.0441463 1.38726 1.92669e-20)
(0.102823 2.38631 5.38282e-20)
(0.0899066 2.42711 0)
(0.159345 2.0837 -4.46924e-21)
(0.101582 1.70726 -3.33784e-20)
(0.232371 2.07327 4.43997e-21)
(0.209994 2.45839 0)
(0.273229 2.41386 -7.76384e-20)
(0.304356 2.41561 5.50231e-20)
(0.21652 2.02726 6.64987e-21)
(0.141158 2.19009 1.21754e-20)
(0.152136 2.31757 0)
(0.0168042 1.87771 1.49746e-19)
(-0.00671771 2.4046 1.51119e-19)
(-0.0312077 2.16356 0)
(0.00203641 2.46636 -5.72783e-21)
(0.0141139 2.31736 -6.67609e-20)
(0.164478 1.44149 -2.91822e-20)
(0.133662 1.32075 4.98356e-19)
(0.0877824 1.39499 -1.6216e-19)
(0.165515 1.49063 -1.44256e-19)
(0.162454 1.52337 0)
(0.0827774 1.33137 0)
(-0.103076 1.00094 -1.84107e-19)
(-0.0637709 1.18462 5.94698e-20)
(0.0178191 1.24327 0)
(-0.0445749 0.943084 -1.36294e-19)
(-0.0528093 0.892164 2.70583e-19)
(1.0397 0.00977438 0)
(1.04549 0.00605804 -1.2732e-20)
(1.03866 0.0193141 -9.23084e-20)
(1.04761 0.0159606 0)
(1.05148 0.0158598 0)
(1.03554 0.0101406 -2.65778e-21)
(1.03166 0.00999826 1.51447e-19)
(1.03103 0.0151947 1.84985e-19)
(1.02639 0.0188789 0)
(1.0244 0.0194586 0)
(1.03485 0.0223873 9.31647e-20)
(1.0266 0.0247299 0)
(1.02639 0.0231967 0)
(-0.188763 2.31892 0)
(-0.331709 2.08134 -2.02605e-20)
(-0.298867 2.21603 -7.18083e-20)
(-0.0556343 1.23607 0)
(-0.273164 1.87182 -1.30012e-19)
(-0.310439 1.61076 6.19351e-20)
(-0.200813 1.23867 0)
(0.38441 1.70317 0)
(0.35785 1.275 2.1043e-19)
(0.309137 1.33821 0)
(0.412504 1.27029 -2.7887e-19)
(0.455837 1.44144 0)
(0.435917 1.38244 1.31912e-19)
(1.02356 2.69704 -2.88976e-21)
(0.948087 2.41646 -1.80435e-19)
(0.888889 2.17901 2.19546e-19)
(0.829171 2.37917 6.7824e-20)
(0.839059 2.51693 0)
(0.90433 2.50711 0)
(0.888052 2.3806 0)
(0.909595 2.34524 -2.41494e-19)
(0.688461 2.48717 -3.77662e-20)
(0.79685 2.48397 -1.16728e-20)
(0.807659 2.45183 9.24821e-21)
(0.684027 2.38193 0)
(0.779147 2.38435 0)
(0.744806 2.39063 -1.05118e-19)
(0.759698 2.5102 0)
(0.60975 1.08999 0)
(0.492232 0.932632 -4.03654e-20)
(0.56935 0.951607 -3.27574e-21)
(0.531204 1.06562 0)
(0.535866 1.02036 6.17624e-20)
(0.764363 0.8739 -5.1806e-21)
(0.767391 0.996716 0)
(0.742469 0.943976 -5.53625e-21)
(0.633148 1.03009 0)
(0.641007 0.936002 0)
(1.16654 2.76072 -2.98811e-21)
(1.1443 2.82619 3.00567e-20)
(0.943256 2.345 -7.92658e-20)
(0.904 2.32391 2.45284e-21)
(1.12825 2.73272 0)
(1.07865 2.70249 -2.86652e-21)
(1.08616 2.48557 -5.76886e-20)
(0.982463 2.2319 -1.32987e-20)
(0.499027 1.37499 0)
(0.505241 1.07858 1.60503e-20)
(0.544966 1.13112 0)
(0.863223 0.214486 0)
(0.81436 0.171583 0)
(0.772352 0.148952 0)
(0.852747 0.222186 -1.53837e-19)
(0.788133 0.218333 9.43241e-20)
(0.935969 0.0497037 -8.95569e-20)
(0.952373 0.0983499 0)
(0.925654 0.103827 3.9527e-20)
(0.876784 0.0812976 1.61419e-19)
(0.866716 0.0416134 -9.99544e-20)
(1.17689 3.37036 -3.97864e-19)
(1.22874 3.2903 0)
(1.14271 3.38863 -7.5935e-19)
(0.641326 3.54721 6.68298e-19)
(0.854573 3.11258 1.1966e-19)
(0.515643 0.86752 1.27938e-19)
(0.428921 0.864304 0)
(0.333623 0.51953 -3.88836e-20)
(0.449938 0.684952 1.9237e-19)
(0.539744 0.486594 -5.21246e-20)
(0.514754 0.530145 6.00052e-20)
(0.644618 0.540149 1.278e-19)
(0.677319 0.555528 0)
(0.637223 0.617697 0)
(0.592752 0.55661 0)
(0.941607 0.58429 -7.85743e-21)
(0.875176 0.530584 -1.02669e-19)
(0.89672 0.559837 6.23202e-20)
(0.930166 0.500697 -7.7449e-20)
(1.03761 0.472811 0)
(1.02958 0.554975 -1.04939e-20)
(0.830772 0.38879 -2.01081e-19)
(0.836879 0.373923 -2.31608e-19)
(0.786716 0.38042 1.56773e-19)
(0.783093 0.356008 -1.70843e-19)
(0.835895 0.31458 -1.28741e-19)
(0.788885 0.312068 1.58542e-19)
(1.02647 0.00524433 -9.6827e-20)
(1.02613 0.00553706 1.99867e-19)
(1.02941 -0.00125925 1.20672e-19)
(1.03285 8.29649e-05 -1.46352e-19)
(1.0329 0.00701258 0)
(1.02994 0.00784027 -2.3831e-19)
(0.0421155 1.64507 -1.90589e-20)
(0.0369602 1.56607 0)
(0.0898085 1.69267 -1.56619e-19)
(0.0880699 1.67745 1.43997e-19)
(0.0937266 1.51328 -9.26373e-20)
(0.0774213 1.48567 0)
(0.0923348 2.00395 0)
(0.0752108 1.55178 6.55984e-20)
(-0.0186585 1.49442 -5.89897e-20)
(-0.143905 1.81966 -7.29955e-21)
(-0.127045 2.25429 1.17243e-19)
(-0.104708 2.23436 -4.41324e-20)
(0.491817 1.38304 1.21589e-19)
(0.486976 1.39234 -1.28067e-19)
(0.434763 1.26965 1.38812e-19)
(0.430033 1.29267 -7.94766e-21)
(0.614675 1.28423 0)
(0.533311 1.37124 1.84167e-19)
(0.549253 1.38142 -1.78701e-19)
(0.441029 1.25835 -1.34397e-19)
(0.495152 1.21643 0)
(0.54291 1.18079 0)
(0.651319 2.44511 5.6673e-20)
(0.672044 2.47981 2.66022e-19)
(0.708923 2.49519 -1.82469e-19)
(0.615494 2.48225 -5.42868e-20)
(0.564262 2.57161 5.62262e-20)
(0.524762 2.55047 -1.55093e-19)
(0.966969 2.37553 -1.18818e-19)
(1.00866 2.39175 0)
(0.91012 2.15953 -1.50379e-19)
(1.04709 2.6846 0)
(1.04926 2.67149 0)
(0.611455 2.25862 4.37347e-20)
(1.03302 3.15996 1.60059e-19)
(0.900295 3.02005 -1.08716e-19)
(0.289475 0.930148 0)
(0.331409 0.774553 -7.85543e-20)
(0.47461 0.743984 -5.08466e-20)
(0.405543 1.98483 0)
(0.478371 2.78784 -8.47172e-20)
(0.437255 2.57189 0)
(0.675019 0.677705 -1.7031e-19)
(0.75491 0.682807 2.17986e-19)
(0.778743 0.621341 -2.12117e-19)
(0.660577 0.645955 -2.39958e-20)
(0.707054 0.60016 -9.75587e-20)
(1.01801 2.76715 -1.20879e-19)
(1.04767 2.83446 9.79319e-20)
(0.661227 2.14675 1.00429e-19)
(0.591395 1.72517 -7.71846e-20)
(0.715107 1.91607 1.12937e-21)
(0.999116 2.47311 -2.98167e-20)
(0.999204 2.46076 -4.52802e-20)
(0.676571 1.88124 -8.63009e-22)
(0.468406 1.3501 -1.03973e-20)
)
;

boundaryField
{
    wall-4
    {
        type            noSlip;
    }
    velocity-inlet-5
    {
        type            fixedValue;
        value           uniform (1 0 0);
    }
    velocity-inlet-6
    {
        type            fixedValue;
        value           uniform (0 3 0);
    }
    pressure-outlet-7
    {
        type            zeroGradient;
    }
    wall-8
    {
        type            noSlip;
    }
    frontAndBackPlanes
    {
        type            empty;
    }
}


// ************************************************************************* //
