/*--------------------------------*- C++ -*----------------------------------*\
| =========                 |                                                 |
| \\      /  F ield         | OpenFOAM: The Open Source CFD Toolbox           |
|  \\    /   O peration     | Version:  4.0                                   |
|   \\  /    A nd           | Web:      www.OpenFOAM.org                      |
|    \\/     M anipulation  |                                                 |
\*---------------------------------------------------------------------------*/
FoamFile
{
    version     2.0;
    format      ascii;
    class       volScalarField;
    location    "14";
    object      p;
}
// * * * * * * * * * * * * * * * * * * * * * * * * * * * * * * * * * * * * * //

dimensions      [0 2 -2 0 0 0 0];

internalField   nonuniform List<scalar> 
918
(
0.232458
0.906168
0.00815523
0.231543
-8.66768e-05
0.873835
-0.832878
0.416465
0.212309
-0.164612
0.0192767
0.202868
0.734807
0.502681
-1.44999
0.0138995
0.368961
-0.696874
0.211177
0.00590165
0.485732
0.218667
0.221724
0.212272
0.270319
0.497384
0.615081
0.00424402
-0.00319798
-0.0014056
0.00334446
-0.00404787
0.00259027
0.75713
0.807816
0.830379
0.181286
0.0205757
-0.669454
-0.761626
-0.736546
-0.895237
0.403897
0.410077
-0.493018
0.415481
0.431248
0.199857
0.211639
0.212625
0.213552
0.212695
0.214009
0.273566
-0.211411
-0.272762
-0.102289
-0.0730452
0.0724125
0.022026
0.0159788
0.0228968
0.0226188
0.141505
0.200007
0.196641
0.207774
0.217493
0.844986
0.815899
0.84159
0.758786
0.773488
0.712442
0.684261
0.522016
0.543064
0.490284
0.478146
-1.87964
-2.84722
-0.857674
-0.602687
0.00201846
0.0213593
0.0271424
0.349849
0.360035
0.361052
0.374925
0.76308
-0.685403
-0.7921
0.210757
0.209912
0.218506
0.218822
0.215984
0.2141
0.0141999
0.0211129
-0.00475433
0.00485627
0.00343378
0.464902
0.460877
0.213883
0.210354
0.224259
0.246628
0.235786
-0.0144014
0.282571
0.30962
0.295998
0.475028
0.474852
0.480813
0.589497
0.55313
0.652439
0.675826
0.00764202
0.0020351
0.0108861
0.00831252
0.0119339
0.178446
0.173003
0.19313
0.183223
0.186023
-0.0533945
-0.182935
0.102221
0.123344
-0.573302
-0.659647
-0.737015
-0.756649
-0.858449
0.213047
0.390376
0.393347
-0.497073
-0.425277
-0.575124
-0.334973
-0.415433
0.189504
0.197303
0.191382
0.206904
0.201873
0.203109
0.2158
0.213009
0.21442
0.284206
0.353822
0.23079
0.212745
-0.530104
-0.343234
-0.489917
-0.0404224
-0.0261665
0.0857982
0.0985558
0.0629714
0.0621741
-0.00705365
0.0114026
0.000205673
0.024247
0.0248795
0.135908
0.127917
0.150563
0.157355
0.192232
0.193055
0.193757
0.194737
0.634337
0.65696
0.665387
0.638783
-3.87324
-6.94486
-0.271724
-0.129149
0.00208141
0.00313198
0.00130116
0.00306942
0.00387414
0.00136577
0.0398234
0.0381189
0.0305527
0.0346393
0.337096
0.344892
0.744871
0.788913
0.676575
0.687581
0.198286
0.201411
0.206492
0.201519
0.0237877
0.0220022
0.0248
0.430748
0.446929
0.448561
-0.0477434
-0.137211
0.0340673
0.0602874
0.323897
0.309554
0.329502
0.360345
0.398106
0.6825
0.700574
0.700642
0.70875
0.753595
0.766412
0.732469
0.161523
0.170232
0.165884
0.197911
0.194444
0.195538
0.19091
0.192957
0.190743
-0.353436
-0.715581
0.201176
0.191658
0.157288
0.170328
0.273978
0.328693
0.371729
0.378208
0.387238
-0.266824
-0.341302
0.176139
0.161835
0.0857191
0.115819
0.0995937
0.605585
0.567023
0.616967
0.590012
0.550349
0.576323
-0.756535
-2.01535
-1.26287
0.236069
0.0404004
0.132027
0.0550799
0.0418849
0.0471253
0.688652
0.726643
0.384795
0.53674
0.507339
0.437891
0.469634
0.527305
0.451932
0.486138
0.520005
0.499687
0.202884
0.211584
0.17616
0.391647
0.461847
-0.153913
-0.197257
-0.269989
0.105236
0.13684
0.123893
0.646759
0.532875
0.616114
0.210071
0.210586
0.0121806
0.021683
0.214666
0.215031
0.00686225
0.00945403
0.110911
-1.15149
-0.173328
0.202325
0.193179
0.210178
-0.201764
0.323298
0.0163664
0.082582
0.0580063
0.201718
0.153031
0.118014
0.00718245
0.0201217
0.0143933
-0.482893
0.207625
0.205525
0.209858
0.210832
0.21157
0.00903704
0.010542
0.00691479
0.0116019
0.011218
0.0092291
0.177463
0.189593
-0.488718
0.209858
0.211907
0.211839
0.204726
0.210459
0.208073
0.0161915
0.0119095
0.0100923
-0.0565083
0.0555545
0.368339
0.490669
0.316001
0.0890613
-0.155653
0.264954
0.333733
0.231016
0.399138
0.37322
0.401382
-0.111737
-0.270693
-0.103524
-0.157732
0.200179
0.199035
0.192204
0.188893
0.205483
0.20361
0.207879
0.204827
0.20754
0.208875
-0.118587
-0.0902707
-0.261391
-0.318126
0.326277
0.413998
0.204177
0.253843
0.134801
0.0216929
0.0225829
0.0188156
0.0162388
0.0528886
0.0622509
0.0766642
0.0618805
0.0492583
0.0449604
0.0535739
0.0588378
0.0621608
0.196135
0.194561
0.200753
0.207296
0.160242
0.162628
0.13404
0.150275
0.140246
0.0837238
0.115897
0.0965422
0.00826218
0.0088398
0.0071195
0.0239376
0.0280467
0.0145095
0.0122995
0.0138574
0.0113435
0.0114153
0.0174288
0.0211221
-0.481258
-0.580157
0.622549
0.598638
-0.598559
0.195944
0.202646
0.199415
0.204819
0.207979
0.208657
0.20632
0.203208
0.190533
0.191885
0.188634
0.189207
-0.418613
-0.568591
-0.396513
-0.454404
-0.182158
0.31479
0.0673058
-0.0019818
-0.000326201
0.212164
0.58975
0.376602
0.429455
0.46563
-0.678578
-0.288344
-0.609673
-0.0239802
-0.196314
0.368775
0.422602
0.447056
0.390672
0.338925
-0.56551
0.191897
-0.361905
-0.328503
-0.13301
-0.226265
0.418952
0.357613
0.363577
0.387296
0.412423
0.360719
0.341376
0.340298
0.381086
0.385515
0.175005
-0.0196965
-0.0783389
-0.107062
0.341238
0.21985
0.272838
0.193572
0.194912
0.1975
0.196149
0.180662
0.187494
0.182208
0.188638
0.190519
0.201276
0.201128
0.1972
0.199586
-0.0524799
-0.0359801
-0.236955
-0.470523
-0.318388
-0.434414
-0.318324
-0.156592
-0.0746411
-0.335308
0.0447919
-0.344113
-0.603585
-0.437395
-0.667869
-0.343646
-0.473626
0.0833114
0.143012
0.151448
0.137114
0.197009
0.184695
0.0396935
0.046263
0.0266205
0.028858
0.0827341
0.10441
0.107101
0.0444826
0.047917
0.024542
0.0242417
0.0524428
0.0329325
0.0422479
0.0614325
0.020451
0.0235547
0.0277036
0.0342147
0.0380403
0.0391257
0.189552
0.192027
0.191017
0.203718
0.214944
0.228678
0.197164
0.175924
0.168864
0.17178
0.150205
0.156977
0.155049
0.164052
0.181781
0.187899
0.186795
0.188392
0.176021
0.176936
0.164429
0.168291
0.150607
0.132274
0.120607
0.0177925
0.0118783
0.0151162
0.0149999
0.0108293
0.0127355
0.0407537
0.031519
0.0356653
0.0321628
0.0378625
0.0174921
0.0176202
-0.558106
-0.604862
-0.52366
-0.573077
-0.628341
0.557756
0.624252
0.477866
0.262165
0.242359
0.46284
0.600113
0.377019
0.418596
0.481189
0.188793
0.386457
0.201654
0.201195
0.198615
0.198504
0.199563
-0.32106
-0.223842
-0.221094
-0.166283
-0.0487038
0.066054
0.0417261
-0.113737
0.0208677
0.0334918
0.308519
0.325389
0.270423
0.295991
0.295011
0.124063
0.199005
0.244446
0.210887
0.24825
0.265205
0.230869
0.258184
0.213015
0.171959
0.174235
0.124426
0.129258
0.111898
0.100373
0.192233
0.171548
0.180918
0.173417
0.193092
0.22223
0.212905
0.237798
0.253642
0.181142
0.143807
0.150012
0.181591
0.141861
0.153887
0.166826
-0.145909
-0.225999
-0.180587
-0.445433
-0.335479
-0.411104
-0.441149
-0.35434
-0.0688914
-0.799707
-0.839709
-1.40009
0.131637
0.644949
0.381322
0.30939
0.408151
0.378319
0.374427
0.422257
0.425062
0.333316
0.349393
0.354031
0.303366
0.325925
0.359186
0.355151
0.18224
0.059121
0.0477382
0.0211826
-0.102429
-0.0687962
0.143686
0.0590229
-0.0171878
0.0032622
0.163842
0.0639762
0.118268
0.153495
0.0718404
0.0455895
0.228303
0.30043
0.292789
0.260453
0.186359
0.196331
0.225064
0.256531
0.282875
0.324687
0.189978
0.193359
0.195471
0.194872
0.189159
0.192255
0.191897
0.194631
0.195282
0.198968
0.197642
0.0137381
0.0151941
-0.00835254
0.00171233
-0.0475264
-0.0773187
-0.092659
-0.129715
0.0240144
0.010415
-0.0268817
-0.0127766
-0.0050804
0.00505421
0.0867863
0.0849632
0.0338232
-0.0141613
-0.11654
0.202433
0.169619
0.0328676
-0.0509044
0.0352562
0.149724
0.061626
0.0750785
0.0678813
0.0803551
0.0750736
0.0344923
0.0284729
0.0299175
0.0412178
0.0388518
0.0251159
0.0223574
0.0246208
0.0250764
0.0244677
0.0237009
0.175789
0.171458
0.173908
0.168403
0.166846
0.179074
0.181815
0.183304
0.187527
0.189265
0.181568
0.185624
0.189056
0.0273216
0.0210279
0.023097
0.0233026
0.0218581
0.0196965
0.0200451
-0.174529
-0.517428
-0.611217
-0.413169
-0.504503
-0.475453
0.174414
0.11264
0.192595
0.273781
0.196816
0.112787
0.17528
0.252883
0.0075782
0.131317
-0.00312215
0.504581
0.367457
0.499201
0.165564
-0.115074
0.0265411
0.0861471
-0.125157
-0.0456831
-0.00955201
-0.107453
-0.0808602
-0.0656405
0.0320318
-0.071525
-0.0997114
-0.311735
-0.108205
-0.0267572
-0.0418362
0.0796133
0.135099
-0.0331331
-0.174366
-0.192024
0.297984
0.318494
0.335964
0.308482
0.329053
0.257112
0.246462
0.265276
0.276015
0.269448
-1.12857
-0.851477
-1.75147
-1.04217
-0.618559
0.163348
0.111734
0.400517
0.303555
0.373911
0.358389
0.336508
0.300436
0.303306
0.338825
0.0604047
0.160348
0.1394
0.141215
0.0397228
-0.0120296
0.267692
0.260952
0.302609
0.325101
0.292779
0.328618
0.18561
0.185151
0.186924
0.183325
0.180066
0.181807
0.0628176
0.0593926
0.0147294
-0.0112514
0.00131607
0.0353223
0.0317994
0.027725
0.0253807
0.0250745
0.0287293
0.033232
-0.129761
-0.23918
-0.337382
-0.271128
-0.332169
-0.433057
-0.428924
-0.359113
-0.228814
-0.249651
-0.00434552
0.268249
0.0866135
0.209452
-0.0727157
0.036239
0.195096
0.148987
0.186016
0.074515
0.162825
-0.0921463
-0.607715
-0.495629
0.381545
0.456915
0.239788
0.10153
-0.187827
-0.0401185
0.215599
0.151405
0.193518
0.262958
0.260126
-0.342339
-0.307059
-0.0254664
0.168422
-0.156608
-0.196107
-0.196333
-0.016568
-0.0680091
)
;

boundaryField
{
    wall-4
    {
        type            zeroGradient;
    }
    velocity-inlet-5
    {
        type            zeroGradient;
    }
    velocity-inlet-6
    {
        type            zeroGradient;
    }
    pressure-outlet-7
    {
        type            fixedValue;
        value           uniform 0;
    }
    wall-8
    {
        type            zeroGradient;
    }
    frontAndBackPlanes
    {
        type            empty;
    }
}


// ************************************************************************* //
