/*--------------------------------*- C++ -*----------------------------------*\
| =========                 |                                                 |
| \\      /  F ield         | OpenFOAM: The Open Source CFD Toolbox           |
|  \\    /   O peration     | Version:  4.0                                   |
|   \\  /    A nd           | Web:      www.OpenFOAM.org                      |
|    \\/     M anipulation  |                                                 |
\*---------------------------------------------------------------------------*/
FoamFile
{
    version     2.0;
    format      ascii;
    class       surfaceScalarField;
    location    "14";
    object      phi;
}
// * * * * * * * * * * * * * * * * * * * * * * * * * * * * * * * * * * * * * //

dimensions      [0 3 -1 0 0 0 0];

internalField   nonuniform List<scalar> 
1300
(
3.75095
5.62643
-6.18634
3.75095
-6.0224
5.62643
-4.5317
4.5317
-1.43734
1.43734
1.87687
1.87408
-4.20924
4.20924
-4.73204
4.73204
-2.80169
2.80169
-5.24636
5.24636
-5.06802
5.06802
4.67547
-4.67547
-4.89931
4.89931
-1.86375
1.86375
-3.80221
3.80221
3.17173
-3.17173
-5.03053
5.03053
-0.52135
0.52135
-0.553288
4.30424
3.19767
3.19767
-2.52403
2.52403
-4.85275
4.85275
6.21794
-6.21794
9.3962
-9.3962
-3.20986
-3.39759
1.34244
-8.1236
-4.67997
-4.67997
-8.44029
8.44029
-2.81386
2.81257
2.91348
-2.91348
-1.77699
1.77699
-4.51263
-0.0190732
-4.51263
4.5075
0.0242
4.5075
-1.56544
0.128105
-1.56544
4.12967
-4.12967
1.27102
0.166314
1.27102
3.06718
-3.06718
-1.87705
3.75392
1.8739
-1.8722
6.17644
-1.87875
3.75284
-4.98282
4.98282
-3.9286
-0.280642
-3.9286
4.44023
-0.230989
4.44023
-5.22126
5.22126
-4.7012
-0.0308388
-4.7012
4.77749
-0.0454514
4.77749
3.02089
-3.02089
-2.833
0.0313134
-2.833
2.74978
0.0519049
2.74978
0.353793
5.27264
-5.98022
8.79279
-5.27264
0.0262762
5.20849
0.0378677
5.20849
-5.10606
0.0380392
-5.10606
5.01025
0.0577718
5.01025
4.75599
-0.080521
4.75599
-4.79617
0.120695
-4.79617
-3.32096
-3.38787
-4.99466
0.0953562
-4.99466
-1.91385
0.0501021
-1.91385
1.81897
0.0447805
1.81897
-3.47524
3.47524
-4.11907
0.316863
-4.11907
3.12467
0.0470653
3.12467
1.86915
1.88181
5.6201
-5.6201
2.44837
-4.98295
-0.0475817
-4.98295
-5.08557
-4.31063
5.08557
-0.0550383
-0.821865
0.300515
-0.821865
3.15943
0.0382326
3.15943
2.68041
0.0693755
-2.68041
0.156377
3.41111
-3.41111
1.88289
0.641139
1.88289
-5.57219
5.57219
4.94865
0.061604
-4.94865
0.0958938
6.15691
0.0610262
6.15691
-6.19976
-0.0181731
-6.19976
3.37912
-6.77671
-3.40175
4.79572
0.103588
-4.79572
0.115749
2.91817
-0.00468809
2.91817
-2.88203
2.88203
-2.95517
0.0416913
-2.95517
-2.20062
0.423626
-2.20062
1.44868
0.328312
1.44868
-4.40589
-0.106734
-4.40589
-4.35976
0.240689
4.35976
0.147738
0.889055
-0.889055
-1.68018
0.114735
-1.68018
-4.26116
-0.144737
4.26116
-0.131485
-3.99175
-0.137918
-3.99175
-3.01323
0.0580605
3.01323
0.0539491
3.11369
0.045742
-3.11369
0.0465072
-1.87118
3.75299
-1.87977
3.75367
-4.74898
-0.23384
-4.74898
5.14287
-0.160044
5.14287
3.73519
0.0670198
-3.73519
-0.193411
4.56847
-0.128242
4.56847
-5.25981
0.0385555
-5.25981
5.2004
0.0208626
5.2004
4.64728
-0.0788024
-4.64728
-0.0539256
4.84268
-0.0651862
4.84268
3.06509
-0.0441979
3.06509
-2.98529
-0.0356004
-2.98529
2.852
-2.852
2.85211
-0.00011099
-2.85211
0.0191073
-11.1324
11.1142
-0.0349222
-11.0975
5.17357
5.17357
4.16755
0.588444
4.16755
-5.00864
0.212472
-5.00864
3.32626
-6.72801
3.38862
-6.70958
3.3761
-11.4997
3.33531
-6.72318
5.15165
-5.15165
5.08114
0.0705136
-5.08114
0.0864774
-1.94065
0.0267981
-1.94065
-2.91537
-0.559864
-2.91537
3.92687
-0.451628
3.92687
-3.0137
3.0137
-3.07629
0.062591
3.07629
0.0483786
4.91639
-0.0737149
-4.91639
-0.066558
1.06118
0.209838
-1.06118
0.239318
3.59415
-0.183044
3.59415
-3.24212
-0.168986
-3.24212
-1.90069
-0.0399622
1.90069
-0.0177947
-5.81998
0.247788
-5.81998
-11.1908
0.0933395
-11.1529
-6.10642
-6.10642
2.33387
11.1267
-2.94967
-0.0356196
2.94967
-0.0315017
2.94342
0.0702745
-2.94342
0.0613915
-2.85368
0.00168136
2.85368
0.0283494
-2.61608
0.41546
-2.61608
-1.04552
1.04552
-1.20726
0.161745
1.20726
0.241417
1.0897
-0.200642
1.0897
1.74798
0.0709839
-1.74798
0.0678093
-3.8771
-0.114653
-3.8771
5.24112
-0.0982544
5.24112
-3.13555
-0.106571
3.13555
-0.0704596
-0.0333624
11.1476
-5.14021
0.0341469
5.14021
-11.2086
11.2427
-3.26194
0.645863
3.26194
0.905605
5.29607
0.276122
-5.29607
0.287434
5.18988
0.0105168
-5.18988
0.038226
-2.39022
-0.525154
-2.39022
-4.37255
-0.376435
4.37255
-0.445682
-11.4744
-0.201116
11.6755
-11.4166
6.0211
0.135811
-6.0211
11.3786
-0.897933
0.00887804
0.897933
0.147587
1.41994
-0.330248
1.41994
3.76725
-0.173103
-3.76725
-0.109846
-5.27221
0.012396
5.27221
-0.0310887
-1.86975
-0.520469
1.86975
-0.449806
-4.2665
4.30473
1.90994
-3.358
-3.41871
-7.66863
1.85062
1.90237
4.29899
-7.10403
-4.39566
-6.98828
7.27257
-6.98513
-9.30363
9.22311
7.41548
-7.5534
-5.7839
5.83228
6.48293
-6.42898
1.87914
1.87478
8.27277
-8.55341
-12.5729
12.3391
10.0468
-10.0776
11.1461
-11.1075
-12.6255
12.6361
-5.7485
5.77981
-6.61077
6.57517
-6.79193
6.72147
-3.28619
-3.42339
9.16647
-9.07111
11.7378
-11.7854
-6.92747
7.24434
3.38258
0.922152
3.42832
-1.8814
3.76054
-1.87144
3.78138
3.39698
-6.68316
3.33104
-6.74975
6.0789
5.65891
-6.02386
-1.64477
-5.86197
5.85728
-5.84859
5.87694
8.9186
-8.93767
-1.88508
3.75986
-1.86859
3.77096
-3.42447
-2.35944
3.3774
0.921587
5.61961
3.54686
-5.72319
-1.26509
-7.65441
7.48131
-7.93779
7.76881
-0.454517
5.82628
-5.37176
4.39824
-1.54808
7.37436
5.72449
5.93696
5.86755
-5.59143
1.11758
-6.48934
-6.39345
-2.69581
2.81055
2.65345
-2.48713
5.84318
1.5723
5.7117
-5.44914
-2.10426
-5.56379
3.82005
2.01223
3.88264
4.03695
2.44598
4.09501
3.03118
-3.03568
0.00449193
-3.0573
6.08848
0.724184
-5.41673
-4.49515
6.01976
2.25301
5.78877
-4.99433
-3.55908
-5.18774
-7.88753
-4.68536
-8.26396
7.61084
4.72821
7.45079
-8.54459
8.5135
6.70578
3.34098
6.66033
-6.51564
-3.56196
-6.56957
10.5812
-2.48006
-8.10114
-7.12709
-5.49846
7.10623
4.03984
7.6608
4.97526
7.69903
3.51927
7.06192
-7.55911
2.06066
-3.84453
-1.90397
-3.82542
3.74032
2.0395
3.79222
-4.12717
-2.4836
-4.16279
-4.19227
-2.59966
4.23647
2.3387
-4.30318
-3.63462
4.40975
2.31173
3.09683
-7.49249
3.62635
-7.04974
-6.39411
-2.677
-6.30763
4.14657
2.61207
-6.75864
-2.53659
10.9311
-5.27219
9.28634
-7.26935
-4.51604
-7.33591
-6.20644
-0.721028
-5.96576
-8.92852
8.40337
-8.61827
8.16664
14.7267
-7.23866
-7.48804
-3.96949
-2.45949
3.92298
-0.49466
-3.71082
3.71532
0.0497139
3.83109
4.75325
4.25859
-3.88899
-1.9596
-3.8276
3.86592
2.01102
3.8676
6.65084
2.26776
6.67504
-6.46568
-2.47199
-6.57242
9.04501
-8.62139
2.9154
-2.95536
5.19758
2.57123
-5.01453
-2.63988
5.99749
-3.03435
-2.96314
-12.2402
10.6009
1.63928
-4.86587
-0.467631
0.053719
-5.50868
-3.79495
5.38798
0.548976
11.1499
7.35497
-5.51292
5.76071
6.16256
6.22417
-0.169279
5.79897
-5.15311
5.17919
-2.18087
-2.99832
5.26631
-5.41105
-1.3061
-5.25161
3.94551
0.300648
1.85821
-1.5577
-2.09492
-0.600892
-2.02711
1.59608
1.05736
1.80592
0.988667
1.82188
-2.95936
0.53715
2.42221
-1.97069
-1.94998
-3.58608
-0.920328
4.50641
5.50139
1.97992
-5.39155
-0.172246
2.74635
-2.70157
-0.866159
-2.71992
1.95036
-2.81652
-3.48097
-1.76023
5.24119
-3.38182
-0.445777
3.31155
0.571098
-3.76754
-2.09443
3.72585
0.369159
-3.13605
6.25207
-3.11602
-5.09566
2.5321
3.55638
4.54433
-4.79515
2.43947
2.35567
-1.23876
5.42899
0.35978
5.30075
-7.03472
3.47563
4.84301
2.40133
-4.91003
-0.277714
-7.31243
11.182
-7.91243
-3.26954
7.26552
3.91645
7.17212
7.55458
-6.46033
13.6325
1.12083
-9.03326
6.1916
-3.79027
4.39599
-8.18626
-11.9506
2.91731
-8.03769
8.95052
-0.912829
-2.421
-6.12359
10.4587
-1.22895
-9.22974
6.22184
-5.58364
-5.20238
10.786
-8.0637
8.76433
-2.93864
-5.8257
-7.09679
-4.01073
7.08439
1.42911
-10.0051
12.0657
-2.94315
5.86013
0.800197
5.79495
4.3203
-6.05254
1.73223
3.7434
-6.68204
3.49378
-9.54631
-4.94816
9.64839
-4.70023
-7.62516
-6.83889
-0.786272
2.03892
10.0268
-7.01419
5.37699
1.6372
3.34938
0.518224
-3.34927
-0.476157
0.35281
4.43867
-4.79148
4.14503
4.21441
3.3751
1.06357
3.8191
2.03819
-3.7876
-0.375196
-4.04071
1.44105
-1.70201
-3.55638
4.99743
-3.97503
0.418654
-2.65021
-3.5028
6.15302
-4.55418
3.09783
3.15424
5.10885
-4.86459
1.36178
-2.40842
-2.45616
2.61325
-4.31526
1.91044
3.08699
4.22217
0.58755
4.91283
4.73556
-7.5249
0.475158
8.28242
-7.01733
1.72735
5.97167
-7.10434
0.265445
-6.04219
1.09239
-6.36459
-5.66625
5.16293
-5.88396
-3.02333
5.87274
0.802301
-6.02047
0.0547174
-5.95271
-2.97582
-6.47318
-2.65942
-5.95885
-9.11975
-1.88466
-7.2351
6.51871
-5.90884
-2.35512
6.35452
1.81212
-7.14378
7.15266
-7.37078
7.04054
0.0945649
3.62075
4.35315
1.89366
-2.38199
4.27565
-4.96537
7.23312
-8.44628
3.48091
4.02608
-6.49806
-4.4202
4.95723
4.08778
5.28554
8.80112
-10.688
1.88684
-10.7918
12.3314
-1.53958
-16.5309
5.73911
-7.72975
2.6695
0.2459
2.6963
0.670388
2.37952
-3.04991
-2.28497
-2.30277
-2.26474
-3.26654
5.53128
1.15795
-3.32096
2.16302
-3.40662
4.56456
-0.109284
-3.21168
5.16006
-2.78053
5.40596
-3.5159
1.89006
3.21695
5.47642
-2.25947
4.16494
-1.59371
1.74148
-4.00095
-1.52506
-2.97508
5.01458
-3.17793
3.59659
-0.223098
3.81969
-3.9986
0.964253
-0.623499
3.59091
3.74728
4.09369
-3.03012
2.8704
-4.4641
-1.13055
-3.87655
-0.789566
-0.513978
-3.64337
4.15734
6.00893
-6.52291
-5.343
9.62849
-4.28549
7.74996
-5.43515
-2.3148
-4.25401
-4.36738
3.83855
1.96043
9.71038
0.213064
-5.64822
-4.94005
-4.03444
3.17025
2.00894
-2.05618
3.69545
2.00246
-0.144244
0.635925
1.17
1.92015
-1.28423
0.148384
1.77177
-1.40932
2.03617
0.710182
-2.10715
0.0800448
-1.41257
3.36293
1.00964
-2.067
0.782777
1.13964
-3.32051
4.67171
-2.28037
-2.39135
5.81135
1.20827
-3.48864
4.04334
-3.74269
2.26986
-3.19019
-1.21878
-4.96147
-3.38917
-2.43686
4.59988
-3.09442
5.07434
1.11891
-4.9021
6.021
-3.43372
1.67349
-3.06573
3.77591
-1.13085
-1.93488
2.63744
2.60376
-2.77878
0.0588601
-0.141341
2.23487
-2.37621
-0.58165
-2.55234
-4.54893
4.91809
-2.1727
4.61218
2.10295
-1.92967
6.54184
1.82326
-3.75293
-3.27239
-3.71817
-1.39725
3.14707
-1.1226
-5.44697
-6.94829
5.52577
-0.225026
-7.74663
10.0018
-2.25517
-5.49362
2.01799
5.24754
-7.83252
1.15048
-4.33874
5.66306
6.02284
5.79781
-10.0571
0.827376
-5.3289
2.72295
-8.05185
6.6394
-5.37993
8.29724
-10.0646
7.70952
-8.25252
5.02769
-3.02416
5.59772
-3.86549
2.50341
-6.51414
-5.08503
6.99901
-3.65804
7.79921
-4.18484
11.984
-7.12799
7.01419
4.96986
-1.46689
-5.86902
-6.8664
5.39951
0.147789
5.94274
4.93988
-2.9017
4.56469
2.23417
-4.6426
-2.08109
-6.50202
1.85943
-3.34778
-1.8857
3.74513
3.22315
3.74137
1.28897
-3.26522
6.77275
-7.55902
-2.07252
-3.59373
6.78277
-1.38327
4.09785
-7.69158
-2.26673
5.30585
-0.0702882
-5.23556
1.93281
-4.95614
0.793382
-5.74952
5.09058
-5.03586
2.11735
-9.84711
-5.02643
-4.87884
-2.27878
-5.092
-7.59912
5.32034
-1.86001
5.29265
-8.63163
8.56134
-3.69972
9.02006
-5.33597
-1.13721
5.78578
1.25476
10.2748
0.173665
-4.59387
-1.83518
3.86002
-2.02484
1.33507
-3.4697
0.390316
2.50106
3.31029
-6.44657
-0.0514966
-4.64536
-3.85663
7.94441
5.77186
11.7808
1.09283
9.19769
-1.25328
10.2905
4.03227
4.27368
-2.90312
4.78996
1.25423
4.73514
-0.863026
2.75308
1.83327
1.88337
0.8182
2.28937
1.45791
3.25363
0.203715
-2.09905
4.65876
-8.6932
-0.989456
-8.10476
1.11836
5.83627
-4.71792
3.08008
-1.07114
1.05524
0.294546
-1.86401
1.56946
-2.70377
-2.00825
-0.236485
-1.51657
2.29935
1.84636
-2.06287
-0.640907
0.273766
-3.66294
2.91642
-2.85756
-0.253805
5.7672
-2.70412
0.327913
-1.03063
-2.22443
-2.82532
2.74528
6.26044
0.281405
3.14442
5.19949
3.10506
0.203363
5.75486
-6.66769
-3.79145
-5.84031
0.799084
6.04662
2.11613
7.91068
7.08599
5.70272
-1.98886
-9.54788
7.31528
-2.52532
5.7757
-0.540137
-5.20938
4.7671
2.46603
-5.5694
0.533541
-4.67584
-7.20116
-0.238053
8.79939
-10.0368
8.89956
5.92375
1.31135
-4.23383
-0.645014
4.07208
0.201601
10.4921
-1.17573
-6.83083
8.00655
-4.66054
3.67109
0.904868
2.79059
2.47433
1.40319
-5.42764
-10.1456
-1.74282
-1.57769
-4.13417
0.372237
-2.21859
6.3138
-2.64271
3.999
5.36384
6.41909
-2.24636
-4.27655
6.53185
-2.53285
3.88623
)
;

boundaryField
{
    wall-4
    {
        type            calculated;
        value           uniform 0;
    }
    velocity-inlet-5
    {
        type            calculated;
        value           uniform -3.75095;
    }
    velocity-inlet-6
    {
        type            calculated;
        value           uniform -5.62643;
    }
    pressure-outlet-7
    {
        type            calculated;
        value           nonuniform List<scalar> 8(6.18634 6.0224 6.60744 6.78116 6.70883 6.78088 6.71488 6.71141);
    }
    wall-8
    {
        type            calculated;
        value           uniform 0;
    }
    frontAndBackPlanes
    {
        type            empty;
        value           nonuniform 0();
    }
}


// ************************************************************************* //
