/*--------------------------------*- C++ -*----------------------------------*\
| =========                 |                                                 |
| \\      /  F ield         | OpenFOAM: The Open Source CFD Toolbox           |
|  \\    /   O peration     | Version:  4.0                                   |
|   \\  /    A nd           | Web:      www.OpenFOAM.org                      |
|    \\/     M anipulation  |                                                 |
\*---------------------------------------------------------------------------*/
FoamFile
{
    version     2.0;
    format      ascii;
    class       volVectorField;
    location    "14";
    object      U;
}
// * * * * * * * * * * * * * * * * * * * * * * * * * * * * * * * * * * * * * //

dimensions      [0 1 -1 0 0 0 0];

internalField   nonuniform List<vector> 
918
(
(0.98515 -0.000614993 0)
(0.00473994 2.96627 0)
(-0.00328927 1.64132 0)
(0.979839 0.00236207 0)
(-4.56976e-05 1.60347 1.17204e-21)
(-0.00703242 2.94889 -8.04297e-19)
(0.844972 1.20184 3.00997e-19)
(0.489585 0.237385 -3.66078e-21)
(0.999928 -0.000383695 0)
(-0.0129009 1.24109 0)
(-0.00111621 1.37485 0)
(0.823713 -0.00568279 0)
(0.011511 2.93008 0)
(0.00184963 2.79486 0)
(-0.0185539 3.16315 4.77287e-19)
(-0.00397657 1.51971 -6.60289e-21)
(0.58896 0.109566 2.27224e-19)
(0.153315 1.20424 2.49816e-19)
(0.963161 0.00394949 0)
(-0.000355968 1.48566 0)
(0.173026 0.273135 -1.93493e-19)
(1.00154 -0.00551623 0)
(1.00081 -0.0100494 0)
(0.975998 -0.0064213 0)
(0.738731 -0.0221249 0)
(0.0186246 2.62879 0)
(-0.0150335 2.9103 2.63951e-19)
(-0.0108966 1.66734 0)
(-0.0106833 1.76502 0)
(-0.00995378 1.66416 0)
(0.00226157 1.80723 0)
(0.00144771 1.62071 -9.0936e-22)
(-0.00380161 1.52786 0)
(-0.0204769 2.98749 -2.80929e-23)
(-0.0170027 3.00543 6.38976e-19)
(0.0020295 3.00021 0)
(0.86394 -0.00605746 0)
(0.403039 0.938697 -7.78501e-21)
(0.83386 1.21871 -4.14324e-19)
(0.983284 1.07158 3.9298e-19)
(0.697044 1.30827 -6.98969e-20)
(0.689978 1.28777 4.01065e-19)
(0.520153 0.307524 3.56957e-21)
(0.513454 0.213799 0)
(1.19191 0.59872 0)
(0.48341 0.3225 1.6635e-20)
(0.447491 0.234429 -1.72722e-20)
(0.919736 -0.00755202 0)
(1.00041 -5.12514e-06 0)
(0.999954 0.000301004 0)
(1.00369 -0.00767968 0)
(1.00077 -0.000901512 0)
(1.00017 0.000100715 0)
(0.036867 1.55739 -2.08027e-19)
(-0.0345579 1.30596 0)
(-0.0169515 1.14876 0)
(-0.0326358 1.39799 0)
(-0.00705779 1.29794 0)
(-0.00241766 1.56718 0)
(-0.00327406 1.52612 0)
(0.000933097 1.37275 0)
(-0.0104626 1.54801 0)
(-0.00558141 1.38763 0)
(0.900108 -0.00102905 0)
(0.901448 0.00767239 0)
(0.836642 0.000780136 0)
(0.893828 0.0117584 0)
(0.809515 -0.00693286 0)
(0.0153881 3.00061 2.88371e-19)
(0.0117491 3.00809 0)
(0.00651325 3.00273 0)
(0.014165 2.99712 3.17828e-24)
(0.00844375 2.95848 -4.35628e-19)
(0.015171 2.98193 0)
(0.0111135 2.90378 0)
(0.0259337 2.93019 5.53913e-25)
(0.0044561 2.8251 0)
(0.0323037 2.91524 0)
(-0.00692904 2.74439 0)
(0.307207 3.56005 0)
(-0.145848 3.63745 0)
(0.138195 3.25553 -4.40564e-19)
(-0.00972808 2.99186 0)
(-0.00909147 1.78851 0)
(-0.00334689 1.64393 6.51173e-21)
(-0.00431118 1.53245 -1.0536e-20)
(0.650475 0.169349 -7.81495e-20)
(0.610436 0.0794858 -7.61483e-20)
(0.620399 0.198901 -2.34614e-19)
(0.571676 0.13772 -1.57189e-19)
(0.230894 1.04842 0)
(0.2373 1.27936 -2.49481e-19)
(0.320151 1.27514 4.11117e-19)
(0.987901 0.00837546 0)
(0.941873 0.00587788 0)
(1.00034 0.000411122 0)
(1.00323 0.00952864 0)
(1.00266 0.00775532 -4.39706e-19)
(0.991888 0.0099917 3.3559e-19)
(-0.00959892 1.59751 0)
(-0.00536162 1.47583 0)
(-0.0167979 1.67761 0)
(-0.012969 1.62524 0)
(0.000658475 1.50488 0)
(0.254233 0.283131 5.98147e-20)
(0.290357 0.267933 0)
(0.993242 -0.00839887 0)
(0.954359 -0.00627661 0)
(0.868563 0.0173976 0)
(0.837258 0.0326666 0)
(0.789725 -0.012077 0)
(1.0191 -0.00382256 0)
(0.782392 0.0430962 0)
(0.660242 -0.00863863 3.05765e-19)
(-0.0349152 2.86711 1.30052e-19)
(0.0447551 2.90695 0)
(0.058045 2.8822 0)
(-0.00636962 2.69554 0)
(-0.013672 2.98517 2.41333e-19)
(-0.0183975 2.89554 0)
(-0.0158554 2.98808 -7.67468e-19)
(-0.0133671 2.92537 2.66271e-19)
(-0.00788362 1.81366 0)
(-0.00592635 1.8081 0)
(-0.000511116 1.6461 -1.25488e-22)
(-0.00250734 1.62058 0)
(-0.00685862 1.5188 0)
(0.928803 -0.000461907 0)
(0.863184 5.812e-06 0)
(0.849959 0.00611195 0)
(0.936289 -0.00461569 0)
(0.876655 -0.00670353 0)
(0.512551 1.13844 5.8357e-21)
(0.568868 1.18941 0)
(0.363077 0.871688 2.25059e-21)
(0.305344 0.730288 0)
(0.951967 1.10004 -1.12396e-19)
(1.06159 0.914068 2.33182e-19)
(0.394396 1.35131 0)
(0.567765 1.35997 0)
(0.522696 1.30005 0)
(0.098636 0.144152 -4.55314e-20)
(0.555712 0.282699 0)
(0.542146 0.189651 4.50066e-20)
(1.0389 0.959221 0)
(1.11634 0.809751 0)
(1.13872 0.756089 -2.06284e-19)
(1.16954 0.649974 0)
(1.21957 0.431235 2.63157e-20)
(0.951019 -0.00837089 0)
(0.961695 -0.011156 0)
(0.898042 -0.00887635 0)
(0.984147 -0.00932641 0)
(0.975489 -0.00880363 0)
(0.938056 -0.00620614 0)
(1.00012 0.00201149 0)
(1.00083 0.00145043 0)
(0.999851 0.000840821 0)
(0.0440784 1.71512 1.11547e-19)
(0.0728144 1.51302 0)
(0.0229032 1.73994 1.8536e-19)
(0.0254319 1.58541 -1.5738e-19)
(0.0604675 1.2016 -2.06217e-19)
(-0.0418591 1.21182 0)
(0.060059 1.1246 0)
(-0.0163909 1.46009 0)
(0.00287377 1.33108 0)
(-0.00917116 1.68777 -4.63573e-22)
(-0.00702448 1.58907 0)
(-0.00247329 1.67924 -2.18215e-20)
(0.00102795 1.56665 4.21786e-20)
(-0.0109964 1.49513 0)
(-0.00713811 1.51821 0)
(0.000967329 1.35429 0)
(-0.013594 1.56259 0)
(-0.00970743 1.41079 0)
(0.968061 0.0131849 0)
(0.915248 0.00341361 0)
(0.952155 0.00802905 0)
(0.889311 0.00102617 0)
(0.83683 -0.00564734 0)
(0.919457 -5.43983e-05 0)
(0.913479 0.00641348 0)
(0.837615 -0.00250212 0)
(0.00453377 3.06454 -2.38356e-21)
(0.0165291 3.05783 0)
(0.0153355 2.96916 0)
(0.0088821 2.87652 0)
(0.965747 3.99947 0)
(1.3104 3.25876 4.89777e-19)
(0.0703199 3.083 0)
(-0.0245369 2.91216 0)
(-0.0101593 1.79245 0)
(-0.0111972 1.78837 0)
(-0.00922769 1.79019 0)
(-0.00400583 1.79685 1.78139e-21)
(-0.010175 1.79077 0)
(-0.00436944 1.78973 0)
(-0.00277781 1.54862 6.61822e-22)
(-0.00527949 1.67003 1.36044e-20)
(-0.00453617 1.65832 1.07549e-20)
(-0.00353523 1.53761 0)
(0.685166 0.131022 1.15157e-19)
(0.63979 0.0429781 -1.11971e-19)
(0.184651 1.37449 0)
(0.241028 0.786321 -9.99401e-20)
(0.152204 1.47145 -3.05182e-19)
(0.181521 1.21377 3.04135e-19)
(0.894778 0.0101194 0)
(0.967251 0.0134621 0)
(0.975532 0.0116318 0)
(0.922433 0.0087799 0)
(-0.0154832 1.57819 0)
(-0.013796 1.59041 0)
(-0.00948253 1.44246 0)
(0.436957 0.34093 1.52807e-19)
(0.365063 0.319929 -1.85103e-19)
(0.377884 0.248986 0)
(1.13779 0.0832179 -1.17402e-21)
(1.11851 0.0370255 0)
(1.05376 0.0336596 0)
(0.9691 0.0031696 0)
(0.701258 0.0853057 0)
(0.725279 0.0638184 -4.92016e-19)
(0.644501 0.019054 1.87857e-19)
(0.00987079 2.98321 1.67213e-19)
(-0.0313635 2.86937 2.04845e-20)
(0.00202692 3.04954 -5.15966e-21)
(0.0204989 3.04341 1.92433e-19)
(-0.0153618 2.99621 8.86313e-21)
(-0.012798 2.94938 -3.59812e-23)
(-0.0175766 3.01163 -1.67339e-19)
(0.0141205 3.02354 1.20385e-19)
(0.00659327 3.03661 -1.92139e-19)
(0.946856 0.00853861 0)
(0.939676 0.00616583 0)
(0.873271 0.00235948 0)
(0.952181 0.0129394 0)
(0.93459 0.0123173 0)
(0.869065 0.00850383 0)
(0.919389 -0.000355232 0)
(0.917906 0.0057784 0)
(0.838239 -0.00176304 0)
(0.741553 1.42429 1.45207e-19)
(0.791074 1.52126 0)
(0.230694 0.415363 1.17688e-20)
(0.203008 0.559485 8.62324e-20)
(0.278577 0.682434 -4.87062e-20)
(0.231874 0.570019 8.74382e-20)
(0.273274 0.641351 2.5164e-19)
(0.111536 0.14481 7.11601e-20)
(0.599453 0.22929 1.69661e-19)
(0.575525 0.250406 4.14654e-20)
(0.550382 0.165181 8.63346e-20)
(1.20831 0.485084 1.18156e-19)
(1.22063 0.279238 1.24517e-19)
(0.00999573 1.74484 7.24791e-20)
(0.015951 1.60714 0)
(1.00904 0.0238152 0)
(0.980567 0.0145499 0)
(0.938603 -0.00162215 0)
(0.0110179 3.07433 0)
(0.0207433 2.9441 3.25978e-19)
(0.017242 2.95638 0)
(0.00648328 2.85085 -3.24866e-19)
(0.00558032 3.09189 7.50215e-20)
(0.00601469 3.08206 0)
(0.880567 1.83054 -1.02067e-19)
(1.27329 2.38973 2.27058e-19)
(0.862795 1.93727 -5.85343e-19)
(0.0208876 2.98514 -1.2106e-19)
(0.0369706 3.00806 0)
(-0.0313115 2.88327 0)
(0.000147833 1.66225 -2.53795e-21)
(-0.00289541 1.67393 -2.99709e-20)
(0.000270726 1.56096 -2.29555e-21)
(0.281686 1.27401 2.80669e-19)
(0.204075 0.53479 -1.92266e-19)
(0.0683705 1.65295 1.86621e-19)
(0.0881765 1.56195 -2.33763e-19)
(0.103202 1.39246 3.31072e-20)
(0.00472557 3.11753 -4.21074e-19)
(0.0146509 3.11798 4.73972e-19)
(-0.00935073 2.98066 2.08728e-19)
(-0.00339682 2.97808 -1.83933e-19)
(-0.0218341 2.88273 -2.12698e-19)
(0.00770374 3.09823 -5.49254e-19)
(0.000968548 3.10607 5.52804e-19)
(0.19263 0.569511 0)
(0.122809 0.548052 -1.87935e-19)
(0.179664 0.246208 8.03943e-20)
(0.333189 0.779965 2.26152e-19)
(0.148969 0.200028 -3.46252e-19)
(1.21684 0.177671 -2.0743e-20)
(1.21897 0.325227 0)
(1.20306 0.128993 4.88475e-20)
(-0.00669932 1.72144 -5.89801e-22)
(-0.0017764 1.73306 0)
(0.00164717 1.59982 0)
(0.362311 1.14821 -9.19719e-20)
(0.37835 0.981147 -1.99306e-19)
(0.14398 0.321187 3.3447e-19)
(1.00528 -0.0112938 0)
(1.00761 -0.00780069 8.06507e-20)
(-0.00775197 1.80264 0)
(-0.0150596 1.81002 0)
(1.00216 0.00354447 8.34233e-22)
(1.00341 0.00993779 1.6469e-19)
(-0.00451464 1.80092 -2.39692e-21)
(-0.00473807 1.80001 0)
(0.0384213 3.18328 4.32948e-20)
(0.391361 3.49347 0)
(1.11346 0.631965 2.48532e-20)
(1.01265 0.0136551 -9.70227e-22)
(1.02012 -0.0187449 0)
(1.00167 0.000259753 -6.96096e-26)
(-0.149926 1.47065 0)
(-0.00123575 2.07377 0)
(-0.0188495 1.76705 0)
(-0.03409 1.85324 3.01196e-20)
(-0.00347269 1.82739 1.72174e-20)
(1.00305 0.0103618 9.77624e-22)
(1.0423 0.0127505 0)
(1.06987 0.0288214 0)
(-0.0124762 1.78879 0)
(-0.00802311 1.8108 0)
(-0.0195023 1.79416 0)
(0.255826 1.17296 -1.70314e-19)
(1.01122 -0.0105371 0)
(1.00931 -0.0145988 0)
(1.00209 0.000482396 1.01824e-19)
(1.00587 -0.0050284 -1.21788e-19)
(1.00098 -0.000771462 0)
(-0.0135431 1.78779 0)
(-0.0106125 1.79578 0)
(-0.010193 1.79347 0)
(-0.0168542 1.79756 0)
(-0.0124995 1.79412 0)
(-0.0156969 1.79735 0)
(1.02447 0.00469828 0)
(1.02388 0.00967381 -4.02029e-22)
(0.816431 1.23806 2.06795e-19)
(1.00272 0.000345356 -1.02313e-19)
(1.00364 0.00575513 1.22998e-19)
(1.0012 0.00193342 0)
(1.01251 0.00984438 9.88443e-20)
(1.00837 0.00868262 -1.23146e-19)
(1.00841 0.0160666 0)
(-0.00678857 1.81088 0)
(-0.00600444 1.80626 5.59103e-21)
(-0.00572865 1.80638 -3.83931e-21)
(1.18372 0.24929 -1.9913e-20)
(1.12075 0.0740276 0)
(0.0580014 3.07815 -2.13478e-19)
(0.0695089 2.84921 -1.71515e-20)
(0.148856 3.20109 3.29153e-19)
(0.144356 3.22982 2.03924e-21)
(0.136476 3.24291 0)
(0.0210606 3.13815 4.68545e-20)
(0.0806218 3.16395 2.05998e-19)
(0.0736228 3.19001 -9.181e-20)
(0.0264656 3.12827 0)
(0.708586 0.328684 0)
(0.619999 0.387278 0)
(1.0795 0.6542 -9.81882e-20)
(1.10015 0.788068 1.54288e-19)
(1.13547 0.548008 0)
(1.17891 0.496418 0)
(1.01771 0.0139304 -1.86218e-19)
(1.01513 0.0192055 2.32666e-19)
(1.02054 -0.0212577 0)
(1.01586 -0.0232275 0)
(1.00691 0.00255933 0)
(1.00995 0.00314307 0)
(1.00407 0.0023909 0)
(1.01035 0.00629113 0)
(1.00715 0.00581402 0)
(1.00578 0.00436463 0)
(-0.140637 1.48575 0)
(-0.0993279 1.5478 0)
(-0.166583 1.41476 0)
(-0.0696613 1.3463 0)
(-0.0419335 2.12703 0)
(0.0688486 2.12336 -1.27458e-19)
(0.000716946 2.06813 0)
(0.000304714 1.99588 6.65127e-20)
(-0.0219143 1.91704 -5.92783e-20)
(-0.0176389 1.76753 0)
(-0.014251 1.7697 0)
(-0.030138 1.75506 0)
(-0.0226483 1.72286 0)
(-0.0515403 1.82779 -1.80213e-20)
(-0.0147084 1.83432 2.46131e-20)
(-0.0328584 1.85187 3.00727e-20)
(-0.0155459 1.8411 0)
(-0.00424137 1.82863 -3.82525e-20)
(-0.00509572 1.82426 -2.19192e-20)
(-0.0454297 1.823 1.4168e-20)
(-0.0255073 1.83039 -3.14603e-20)
(-0.0315547 1.83991 -3.78215e-20)
(1.01069 0.0158116 1.82209e-19)
(1.01052 0.00418609 -2.25105e-19)
(1.00535 0.0200724 -1.88977e-19)
(0.992231 0.0170293 2.40645e-19)
(1.04018 0.0196208 0)
(1.03873 0.0108624 0)
(1.06248 0.0410975 0)
(1.04935 0.0220305 0)
(1.05332 0.00940356 0)
(1.10186 0.0710638 0)
(1.07927 0.0468237 0)
(1.08851 0.033929 0)
(-0.00984111 1.80132 -6.40667e-22)
(-0.0122673 1.7908 0)
(-0.0111419 1.79364 0)
(-0.00854496 1.8143 6.30428e-21)
(-0.0093733 1.81425 -2.94672e-22)
(-0.0158453 1.78762 6.27222e-21)
(-0.0156763 1.78904 -6.349e-21)
(-0.0178291 1.79418 0)
(-0.0147256 1.79479 0)
(-0.0148097 1.79491 0)
(-0.0210473 1.7929 0)
(-0.0222519 1.78856 0)
(0.446949 1.2219 3.61304e-19)
(0.41302 1.35309 1.35588e-19)
(0.602303 2.41376 -6.69746e-20)
(0.28136 2.36233 1.81129e-19)
(0.459339 2.37699 -6.90375e-20)
(1.02048 -0.0108541 0)
(1.01599 -0.00931675 0)
(1.01543 -0.0157532 0)
(1.00795 -0.00151788 0)
(1.00457 -0.00118965 0)
(1.00678 -0.00486685 0)
(1.0099 -0.00307861 0)
(1.01357 -0.00450526 0)
(1.02436 0.0123758 1.77588e-19)
(1.01809 0.0200031 -2.23703e-19)
(1.02507 0.00443083 -1.76748e-19)
(1.02109 0.00131651 2.22162e-19)
(0.771341 1.2627 0)
(0.693249 1.3454 2.54103e-19)
(0.882232 1.18148 1.48545e-19)
(0.922925 1.15093 -1.97218e-19)
(1.12165 2.60788 -2.28366e-19)
(0.830258 0.0960375 1.18279e-19)
(1.11295 0.0949048 0)
(1.15962 0.169329 1.99236e-20)
(1.16649 0.144374 8.49303e-22)
(0.967122 0.125331 0)
(0.167173 2.96916 3.252e-20)
(0.1296 2.877 -2.86104e-19)
(0.0461971 2.35809 1.95314e-19)
(0.118678 0.148612 -7.5074e-20)
(0.339158 3.43269 -1.81796e-19)
(0.198037 3.32626 0)
(0.23017 3.36565 2.3659e-19)
(0.264858 3.04558 -2.56879e-19)
(0.363147 3.20448 0)
(0.00637765 3.12031 1.1096e-20)
(0.0178107 3.12889 -1.4463e-19)
(0.0155045 3.12459 2.12114e-19)
(0.0374917 3.14024 0)
(0.0360788 3.1516 0)
(1.1793 2.65313 0)
(0.504446 0.843326 -9.01768e-20)
(1.03512 0.963628 -8.03008e-20)
(0.951796 1.06371 0)
(0.799091 0.952487 2.21467e-20)
(1.02981 0.871622 1.16622e-20)
(0.38796 0.473336 -2.19715e-19)
(0.73198 0.32533 -8.61879e-21)
(0.721612 0.276622 8.99911e-20)
(0.617765 0.432774 7.16716e-21)
(0.558017 0.412425 -2.95717e-19)
(0.70902 0.362068 0)
(0.704848 0.434816 1.47468e-19)
(0.717051 0.424514 0)
(0.654644 0.415267 0)
(0.667516 0.348885 0)
(0.732697 0.598265 5.40684e-20)
(1.15978 0.266785 4.97467e-21)
(1.17184 0.401269 0)
(1.20062 0.352237 0)
(0.775225 0.211466 1.33935e-19)
(0.778113 0.529922 -7.52317e-20)
(0.698496 0.515223 1.21864e-19)
(0.892536 0.393199 -1.14695e-19)
(1.02067 0.0195863 1.2044e-19)
(1.02 0.0190121 -1.24143e-19)
(1.0161 0.0235488 0)
(1.02341 -0.00190652 0)
(1.01999 -0.018743 -1.1168e-19)
(1.00961 -0.0178645 1.10657e-19)
(1.0364 0.00517893 0)
(1.03158 0.00821619 0)
(1.01139 0.00249194 0)
(1.01495 0.00877748 0)
(1.01732 0.00302015 0)
(1.01414 0.00160552 0)
(-0.0903322 1.59643 0)
(-0.0547725 1.6272 0)
(-0.269074 1.41193 7.94474e-20)
(0.19626 1.2339 9.74222e-20)
(-0.0612018 1.29044 1.86017e-19)
(0.104114 1.20337 -3.14506e-19)
(-0.178431 1.39637 0)
(-0.361648 1.99202 1.07276e-19)
(-0.350974 1.96908 0)
(0.235559 2.44168 1.00275e-19)
(0.0848737 2.54047 9.1844e-20)
(-0.362253 1.9519 -9.4192e-20)
(0.106127 1.17625 1.12611e-19)
(-0.175125 1.3623 -8.93846e-20)
(0.136596 1.20157 3.09942e-19)
(-0.193998 1.96651 0)
(-0.0125428 2.01886 -2.22677e-19)
(-0.0927598 1.88403 -1.29206e-20)
(-0.0203844 1.93331 0)
(-0.0838915 1.93731 5.39119e-20)
(-0.0808882 1.90197 0)
(-0.00666864 1.98012 -7.26124e-20)
(-0.00628635 1.95936 0)
(-0.0468019 1.79595 -1.42762e-20)
(-0.0573167 1.81093 0)
(-0.0607823 1.76655 0)
(-0.0521578 1.78114 1.60634e-20)
(-0.0373978 1.86513 -1.99751e-21)
(-0.0280718 1.90468 6.94712e-20)
(-0.0289063 1.88802 4.81005e-22)
(-0.023973 1.81431 1.17262e-20)
(-0.0304058 1.81164 7.7358e-21)
(-0.0185858 1.77313 0)
(-0.0209225 1.77339 0)
(-0.0935251 1.85143 3.02768e-20)
(-0.0860156 1.7732 2.06166e-20)
(-0.0845996 1.81308 -2.93143e-20)
(-0.134214 1.87234 0)
(-0.0127505 1.8053 -2.0865e-20)
(-0.0118314 1.81374 9.4259e-21)
(-0.0124304 1.81254 -3.08348e-21)
(-0.0183261 1.81462 -1.41815e-20)
(-0.0130056 1.81719 -5.08539e-21)
(-0.0126101 1.82248 2.5181e-20)
(1.02182 0.000889036 -1.18951e-19)
(1.0173 0.00874686 1.20791e-19)
(1.01679 -2.04962e-05 0)
(0.994229 0.0460922 1.72279e-19)
(0.991049 0.0320982 -2.00661e-19)
(0.964418 0.0219865 2.32194e-19)
(0.993743 0.0796759 -2.24425e-20)
(1.0258 0.0101302 0)
(1.03189 0.0135853 1.02875e-19)
(1.02967 0.0110016 -1.01845e-19)
(1.03687 0.0403881 -5.6455e-21)
(1.03998 0.0259647 4.95834e-20)
(1.02972 0.0512337 0)
(1.02186 0.0423994 -1.84378e-20)
(1.02025 0.0216318 0)
(1.01815 0.0210084 0)
(1.03731 0.00613507 0)
(1.03093 0.00420564 0)
(1.02705 0.0228464 3.82869e-20)
(1.02922 0.0165485 -8.61098e-20)
(1.02738 0.028364 -3.90958e-20)
(1.02768 0.028883 -4.50132e-20)
(1.02565 0.0545747 8.14235e-20)
(1.06367 0.0491824 0)
(1.06136 0.088263 0)
(-0.012744 1.80543 -8.68344e-21)
(-0.01288 1.79472 -7.526e-22)
(-0.0138091 1.79406 0)
(-0.0087157 1.80653 8.82943e-21)
(-0.00912298 1.80235 1.32282e-21)
(-0.00924019 1.80577 -1.50283e-21)
(-0.00754552 1.82274 1.95532e-20)
(-0.0130457 1.81613 -1.11182e-21)
(-0.01272 1.81604 5.39705e-21)
(-0.00962135 1.8183 -9.86446e-21)
(-0.00920184 1.81894 1.17911e-20)
(-0.0180649 1.79028 1.75644e-22)
(-0.0173464 1.79026 9.45731e-21)
(0.474582 1.15327 -1.96552e-19)
(0.48665 1.34192 -3.0544e-19)
(0.655713 1.35607 -2.4595e-19)
(0.544591 1.36187 -1.29737e-19)
(0.544812 1.39393 0)
(0.600664 2.40885 4.80194e-20)
(0.668187 2.39355 9.00577e-20)
(0.294165 2.46309 3.91069e-20)
(0.264066 2.63714 -7.02603e-20)
(0.387845 2.6063 7.00858e-20)
(0.510799 2.46696 0)
(0.509199 2.37699 -1.49532e-19)
(0.0113186 2.25656 3.2571e-19)
(0.158012 2.38741 -2.29074e-20)
(0.17319 2.23448 -4.21624e-19)
(0.883724 2.31845 8.53245e-20)
(0.818425 2.35315 0)
(1.01022 -0.000543084 4.01644e-21)
(1.01381 -0.00540256 -3.33558e-21)
(1.01654 -0.00617853 -5.95818e-20)
(1.01368 -0.00611653 6.00456e-20)
(1.01233 0.000242502 0)
(0.649045 1.25674 0)
(0.652433 1.16076 0)
(0.752201 1.05077 0)
(0.636718 1.10084 0)
(1.15109 2.62613 2.20046e-20)
(1.02288 2.34228 0)
(0.785473 2.24545 -2.84725e-22)
(0.859318 2.47643 0)
(0.913935 2.55175 -1.37264e-20)
(0.922872 2.52412 9.00272e-21)
(0.836373 0.136559 0)
(0.801998 0.154908 3.37793e-20)
(0.905905 0.1228 1.75035e-19)
(0.857646 0.111424 -6.99934e-20)
(0.855515 0.0691211 -2.1042e-19)
(1.01888 0.214327 -1.05865e-19)
(0.958281 0.266978 -5.9954e-21)
(0.894867 0.249918 1.54595e-19)
(0.965433 0.208889 1.1916e-19)
(0.927001 0.161191 -2.19497e-19)
(0.897322 0.172244 2.80241e-20)
(0.91458 0.231277 -5.55526e-20)
(0.899016 0.195414 0)
(0.967395 0.162697 1.05193e-19)
(1.00078 0.163876 0)
(0.995734 0.202089 0)
(1.04519 0.0972697 3.55669e-20)
(1.02271 0.152102 -5.36438e-21)
(1.0129 0.210456 -1.78691e-20)
(1.04681 0.181837 0)
(1.01131 0.0242893 9.16038e-20)
(1.01877 0.0434012 1.07625e-19)
(1.01786 0.028394 -8.97356e-20)
(1.01198 0.0487767 -7.25751e-20)
(1.00146 0.0509656 -1.21629e-19)
(0.970657 0.125803 0)
(0.984058 0.0785286 0)
(0.967522 0.0482557 -8.37076e-20)
(0.931106 0.0559313 3.47956e-20)
(0.997454 0.0765123 1.02677e-19)
(1.01623 0.0956669 -1.05711e-19)
(1.02799 0.118901 9.38114e-20)
(0.993341 0.122372 0)
(1.0266 0.0851404 0)
(1.01554 0.0716703 -4.42782e-20)
(1.01151 0.0761168 -8.23877e-20)
(0.541251 1.0816 -4.3795e-20)
(0.61819 1.53684 7.50879e-20)
(1.13872 2.78982 5.60782e-20)
(1.23131 3.0995 -3.49105e-20)
(1.22418 2.73196 2.58339e-19)
(1.26324 2.72783 -1.59004e-19)
(1.13966 2.35061 1.10006e-20)
(1.21565 2.99722 9.1571e-20)
(1.22912 2.96863 -1.05002e-19)
(1.23753 3.2531 -1.4059e-19)
(1.3585 2.99053 1.64756e-19)
(1.30351 2.90668 0)
(0.506465 0.850626 -4.65877e-21)
(0.13265 1.29544 1.5587e-19)
(0.530844 0.548974 1.47441e-19)
(0.33288 0.313658 1.53764e-19)
(0.555154 0.459166 1.65958e-19)
(0.559834 0.495306 -2.58117e-19)
(0.544486 0.539516 2.10529e-19)
(0.512331 0.487446 -8.66147e-20)
(0.473043 0.422994 1.98765e-19)
(0.776569 0.255848 -7.46075e-20)
(0.743188 0.297606 0)
(0.741207 0.25252 4.57012e-21)
(0.688036 0.522579 7.54266e-20)
(0.675786 0.484578 -2.7983e-19)
(0.599045 0.50708 6.65474e-21)
(0.625036 0.483258 0)
(0.615201 0.731665 6.04984e-20)
(0.778966 0.777919 1.90405e-20)
(0.701686 0.854811 -2.57815e-20)
(0.815699 0.801706 -7.0876e-21)
(0.867437 0.827236 5.89606e-21)
(0.871708 0.837682 -6.05634e-21)
(0.782571 0.610321 -9.3517e-20)
(0.862061 0.690378 6.60674e-21)
(0.928789 0.693738 0)
(0.907905 0.658751 -9.3302e-21)
(0.97576 0.28756 2.67826e-20)
(1.0569 0.27358 9.04728e-21)
(1.00179 0.255857 4.25683e-20)
(0.950066 0.327219 -6.07444e-20)
(0.992672 0.396943 0)
(1.04514 0.382822 0)
(0.879753 0.32154 3.06269e-21)
(0.840876 0.273759 0)
(0.840772 0.249526 8.12784e-20)
(0.890397 0.253844 -3.03058e-21)
(0.87915 0.394101 3.14349e-19)
(0.827315 0.464735 8.07802e-20)
(0.831889 0.426118 -1.02214e-19)
(0.778779 0.418922 1.09748e-19)
(0.764847 0.424498 7.5373e-20)
(0.753769 0.41549 -7.32632e-20)
(1.02654 -0.00990163 9.55577e-20)
(1.02631 -0.00832855 0)
(1.02488 -0.0104806 6.46779e-20)
(1.02384 -0.0143078 -1.43514e-19)
(1.03538 0.00012381 6.97961e-20)
(1.02925 0.0108669 -1.47526e-19)
(1.02858 0.0132822 0)
(1.02349 0.0134832 -3.07616e-20)
(1.02224 0.00819001 7.68269e-20)
(1.01793 0.0124596 -3.92609e-20)
(1.02138 0.0145013 2.89799e-20)
(-0.0410192 1.72119 0)
(-0.0722927 1.75833 0)
(-0.0509833 1.671 0)
(-0.0302572 1.67733 0)
(-0.228735 1.69061 -4.39542e-20)
(-0.225895 1.56377 7.27899e-21)
(-0.306698 1.95134 7.19472e-21)
(-0.38979 1.71958 -6.05973e-20)
(-0.12087 1.77703 -1.22851e-20)
(-0.140132 1.77069 8.41662e-21)
(-0.182221 1.67776 8.42834e-21)
(-0.15422 1.6945 1.10804e-20)
(-0.107738 1.72265 7.0476e-22)
(-0.0947875 1.74321 -1.10314e-21)
(-0.117221 2.00572 -5.66329e-20)
(-0.132566 2.07524 0)
(-0.264506 2.13516 1.18992e-20)
(-0.312248 1.99311 1.94073e-21)
(-0.231017 2.30789 1.29034e-20)
(-0.122896 2.4289 0)
(-0.0844343 2.4687 -6.87631e-20)
(-0.0230417 2.53136 4.87027e-20)
(-0.270798 2.2367 -4.18899e-21)
(-0.276266 2.19124 -1.34358e-20)
(-0.192365 2.29434 0)
(-0.0718342 1.83435 -3.96251e-20)
(-0.0616836 1.83477 -5.81929e-20)
(-0.0621108 1.83013 0)
(-0.0669986 1.86378 -2.08348e-21)
(-0.0770249 1.86154 2.10269e-20)
(-0.0241845 1.79025 2.34101e-21)
(-0.0199795 1.78883 -3.53792e-20)
(-0.0241112 1.79558 7.66846e-21)
(-0.0280157 1.80009 1.45221e-20)
(-0.0338577 1.80129 0)
(-0.0239814 1.7953 0)
(-0.0247271 1.78578 1.03572e-20)
(-0.0258972 1.79251 -3.35289e-21)
(-0.0253602 1.79336 0)
(-0.0237666 1.77887 7.87171e-21)
(-0.023142 1.77981 -1.54856e-20)
(1.03053 0.0185872 0)
(1.03207 0.0183662 -9.33796e-21)
(1.03254 0.0177185 -6.91983e-20)
(1.03097 0.0185183 0)
(1.03051 0.020021 0)
(1.03492 0.0108796 -1.95104e-21)
(1.03507 0.0102062 1.135e-19)
(1.03046 0.0082115 1.40071e-19)
(1.03066 0.00554652 0)
(1.02445 0.00374347 0)
(1.02715 0.0152849 6.99172e-20)
(1.02167 0.0125525 0)
(1.02311 0.00930074 0)
(-0.0159655 1.80767 0)
(-0.0184066 1.79046 7.47778e-22)
(-0.0173588 1.7985 4.77729e-21)
(-0.0254175 1.7936 0)
(-0.0212882 1.79381 6.31574e-21)
(-0.0202652 1.7929 -3.17761e-21)
(-0.023447 1.79231 0)
(0.637621 1.71716 0)
(0.567554 1.31785 4.41522e-19)
(0.507629 1.76499 0)
(0.630713 1.23868 -4.66964e-19)
(0.552145 1.26105 0)
(0.584366 1.23679 1.99437e-19)
(1.00113 2.68726 -1.85258e-21)
(0.92185 2.35053 -1.04284e-19)
(0.830217 2.05249 1.71943e-19)
(0.826402 2.34131 4.18835e-20)
(0.879835 2.50191 0)
(0.903383 2.4896 0)
(0.865047 2.32274 0)
(0.852348 2.26876 -1.55223e-19)
(0.75228 2.50508 -1.75104e-22)
(0.868227 2.47505 -7.22361e-21)
(0.861398 2.45532 5.69797e-21)
(0.700485 2.36657 0)
(0.786131 2.35105 0)
(0.748912 2.37189 -8.58156e-20)
(0.844609 2.5009 0)
(0.60163 1.0751 0)
(0.478521 0.899289 1.13125e-20)
(0.534731 0.925344 1.15127e-22)
(0.506066 1.01888 0)
(0.521063 0.972931 -1.74836e-20)
(0.718626 0.878151 6.40261e-21)
(0.766202 0.987821 0)
(0.739577 0.961466 -2.59691e-20)
(0.629411 1.01232 0)
(0.606341 0.920634 0)
(1.13575 2.79095 2.1265e-20)
(1.11647 2.85958 4.81014e-20)
(0.891759 2.40132 -1.13059e-19)
(0.853106 2.37641 9.78446e-21)
(1.09247 2.75062 0)
(1.04669 2.71596 -1.2565e-20)
(1.04455 2.4733 -3.12965e-20)
(0.919789 2.18412 -1.13228e-20)
(0.464609 1.44052 0)
(0.443114 1.08518 3.83412e-20)
(0.556722 1.18237 0)
(0.836901 0.218958 0)
(0.808932 0.183414 0)
(0.771315 0.187582 0)
(0.831778 0.220772 -1.28634e-19)
(0.78536 0.21814 7.89551e-20)
(0.932617 0.0537053 -7.12245e-20)
(0.940033 0.101282 0)
(0.921969 0.106379 3.25535e-20)
(0.884743 0.0755777 1.33581e-19)
(0.887379 0.0564218 -8.24208e-20)
(1.17305 3.38448 -4.19827e-19)
(1.22488 3.30191 0)
(1.14168 3.39977 -7.95734e-19)
(0.644037 3.55729 7.01659e-19)
(0.858292 3.11254 1.48993e-19)
(0.48316 0.867453 9.04671e-20)
(0.424492 0.841894 0)
(0.322625 0.585871 -3.22989e-20)
(0.407494 0.687853 1.47603e-19)
(0.520506 0.556887 -4.40639e-20)
(0.506274 0.572833 4.9652e-20)
(0.616674 0.536015 1.08386e-19)
(0.642221 0.544335 0)
(0.593906 0.623053 0)
(0.559465 0.561488 0)
(0.913097 0.577425 -1.79434e-20)
(0.827998 0.513338 -7.75055e-20)
(0.855526 0.551961 4.07375e-20)
(0.895159 0.493681 -5.72136e-20)
(1.01244 0.463619 0)
(0.998326 0.540974 -3.99637e-21)
(0.821183 0.366685 -1.63113e-19)
(0.830294 0.35418 -1.83797e-19)
(0.806397 0.367299 1.27438e-19)
(0.802113 0.335999 -1.43453e-19)
(0.833573 0.300827 -1.07625e-19)
(0.800507 0.30246 1.32265e-19)
(1.03875 0.00159796 -7.27535e-20)
(1.04037 0.00265013 1.4992e-19)
(1.02933 -0.00400699 9.10367e-20)
(1.03511 0.00198445 -1.09515e-19)
(1.03275 0.0146841 0)
(1.0358 0.0112003 -1.79235e-19)
(-0.139743 1.8708 1.24729e-20)
(-0.154723 1.87088 0)
(-0.229032 1.94506 7.17284e-21)
(-0.262238 1.98233 -5.86605e-22)
(-0.28805 1.93143 -1.32567e-20)
(-0.243778 1.91589 0)
(-0.0162362 1.81021 0)
(-0.0240314 1.79977 -3.55825e-21)
(-0.0236184 1.79583 3.18197e-21)
(-0.023368 1.79573 8.40207e-22)
(-0.0182362 1.80723 -6.28369e-21)
(-0.0156249 1.80958 4.18528e-21)
(0.581582 1.43413 1.50697e-19)
(0.593702 1.48623 -1.57672e-19)
(0.637226 1.28569 1.93344e-19)
(0.744114 1.44527 -1.01979e-20)
(0.639532 1.27803 0)
(0.607981 1.30827 2.22427e-19)
(0.60545 1.32196 -2.17429e-19)
(0.605719 1.25317 -1.88401e-19)
(0.627649 1.2709 0)
(0.587514 1.2596 0)
(0.797333 2.51146 2.65783e-22)
(0.75934 2.52032 1.77818e-19)
(0.814399 2.53061 -1.20947e-19)
(0.723178 2.5392 -4.28476e-20)
(0.609165 2.71272 -2.99619e-21)
(0.511038 2.74759 -4.17536e-20)
(0.936847 2.30903 -9.60944e-20)
(0.96946 2.35751 0)
(0.8477 2.06929 -1.02626e-19)
(1.02233 2.69799 0)
(1.006 2.67057 0)
(0.62639 2.25749 8.303e-20)
(1.02604 3.16728 1.91827e-19)
(0.898336 3.02681 -1.46505e-19)
(0.291555 0.976619 0)
(0.3443 0.838494 -6.28105e-20)
(0.476772 0.772522 -2.53375e-20)
(0.434228 2.01234 0)
(0.477349 2.78677 -1.05477e-19)
(0.444999 2.57687 0)
(0.623552 0.681047 -1.24575e-19)
(0.702797 0.678431 1.57068e-19)
(0.736555 0.615755 -1.51811e-19)
(0.6107 0.638369 -1.86844e-20)
(0.669059 0.592071 -7.64595e-20)
(1.01683 2.78403 -1.44843e-19)
(1.03416 2.85466 1.43265e-19)
(0.68713 2.19673 2.31952e-20)
(0.588628 1.72932 -2.5733e-20)
(0.726225 1.94253 7.06968e-20)
(0.991153 2.50766 -1.60778e-20)
(0.989388 2.52284 -9.94297e-20)
(0.692186 1.9187 -4.52743e-21)
(0.467922 1.34388 -4.46786e-20)
)
;

boundaryField
{
    wall-4
    {
        type            noSlip;
    }
    velocity-inlet-5
    {
        type            fixedValue;
        value           uniform (1 0 0);
    }
    velocity-inlet-6
    {
        type            fixedValue;
        value           uniform (0 3 0);
    }
    pressure-outlet-7
    {
        type            zeroGradient;
    }
    wall-8
    {
        type            noSlip;
    }
    frontAndBackPlanes
    {
        type            empty;
    }
}


// ************************************************************************* //
