/*--------------------------------*- C++ -*----------------------------------*\
| =========                 |                                                 |
| \\      /  F ield         | OpenFOAM: The Open Source CFD Toolbox           |
|  \\    /   O peration     | Version:  4.0                                   |
|   \\  /    A nd           | Web:      www.OpenFOAM.org                      |
|    \\/     M anipulation  |                                                 |
\*---------------------------------------------------------------------------*/
FoamFile
{
    version     2.0;
    format      ascii;
    class       volScalarField;
    location    "8";
    object      p;
}
// * * * * * * * * * * * * * * * * * * * * * * * * * * * * * * * * * * * * * //

dimensions      [0 2 -2 0 0 0 0];

internalField   nonuniform List<scalar> 
918
(
0.231363
0.899296
0.0058635
0.229186
0.00155096
0.867052
-0.756162
0.420967
0.210329
-0.120307
0.0256728
0.197408
0.72867
0.493063
-1.4176
0.0186897
0.365261
-0.651691
0.204481
0.00924089
0.489213
0.218174
0.22095
0.211924
0.266551
0.48384
0.607699
-0.00201858
-0.00235377
-0.00208552
0.00429915
0.000121818
0.00867348
0.75012
0.801142
0.82391
0.182523
-0.0398057
-0.566564
-0.69236
-0.637946
-0.797262
0.406168
0.411702
-0.480822
0.419045
0.434956
0.200911
0.209132
0.210296
0.213778
0.210661
0.212598
0.291521
-0.128737
-0.17364
-0.0624628
-0.0408683
0.0926658
0.0278465
0.0271009
0.0261958
0.0298713
0.142357
0.194952
0.195713
0.201638
0.210052
0.838179
0.8087
0.834517
0.753089
0.767359
0.706084
0.677179
0.513315
0.53453
0.479534
0.465144
-1.83907
-2.80428
-0.827121
-0.587568
0.0018376
0.0247609
0.0319629
0.346271
0.357427
0.360452
0.380122
0.745368
-0.591634
-0.791134
0.207501
0.204686
0.216593
0.216118
0.213416
0.210849
0.0165885
0.0222902
-0.00299776
0.00821581
0.00586841
0.471552
0.474185
0.212738
0.208675
0.219612
0.238549
0.22771
-0.0103603
0.275294
0.306734
0.291245
0.462332
0.462397
0.467494
0.581785
0.544845
0.645234
0.668065
0.00686071
6.48847e-05
0.018698
0.00965712
0.0141171
0.179176
0.173952
0.193119
0.186276
0.187143
-0.0271094
-0.126708
-0.0588486
-0.139537
-0.504861
-0.613731
-0.618444
-0.634958
-0.806713
0.483007
0.390048
0.400381
-0.457931
-0.393806
-0.546926
-0.329151
-0.41473
0.189678
0.195827
0.192973
0.207876
0.203149
0.205952
0.213945
0.210605
0.212046
0.320718
0.373771
0.258235
0.233186
-0.391019
-0.200695
-0.411773
-0.0204068
-0.0132152
0.105983
0.112939
0.0812525
0.0755143
0.00097064
0.0228363
0.0111199
0.0291852
0.0306817
0.132614
0.123755
0.151892
0.157439
0.189804
0.189768
0.192418
0.189735
0.627995
0.649799
0.657832
0.631168
-3.82525
-6.90175
-0.264583
-0.124341
0.00549636
0.00398845
0.0028846
0.00398628
0.00383833
0.00266105
0.04779
0.0467215
0.0362941
0.0433325
0.33276
0.344895
0.722137
0.786008
0.652212
0.643997
0.195519
0.197377
0.203221
0.197083
0.0272457
0.025024
0.0245807
0.435361
0.453957
0.452772
-0.0470557
-0.140502
0.0352194
0.0599086
0.323861
0.308685
0.325153
0.354847
0.39033
0.675721
0.694293
0.693541
0.70299
0.746811
0.759586
0.726149
0.162151
0.169749
0.167079
0.194102
0.192826
0.192374
0.188366
0.188781
0.18866
-0.285567
-0.655429
-0.169243
-0.313592
-0.266287
-0.308702
0.529241
0.627543
0.371578
0.381946
0.391085
-0.259221
-0.344642
0.199477
0.179705
0.0850165
0.114105
0.0986192
0.598277
0.558765
0.609021
0.582041
0.542042
0.568955
-0.696988
-1.97504
-1.22435
0.233108
0.0409931
0.13161
0.069449
0.0526766
0.0602191
0.777234
0.823948
0.416416
0.546056
0.537535
0.430089
0.462168
0.51875
0.442842
0.478079
0.511799
0.492558
0.237388
-0.0336362
0.171779
0.657618
0.770291
-0.155021
-0.192198
-0.273824
0.121397
0.154938
0.137028
0.794206
0.763613
0.823165
0.207531
0.209909
0.00990691
0.0132402
0.213258
0.213177
0.00820429
0.0076882
0.108948
-1.07566
-0.185104
0.199219
0.194086
0.207561
-0.0814274
0.285144
0.0281916
0.092679
0.066021
0.197308
0.149552
0.1171
0.00515707
0.0261148
0.017862
-0.324726
0.205136
0.204046
0.207311
0.209478
0.209018
0.00611307
0.00904272
0.00761871
0.0173082
0.010372
0.0107754
0.178695
0.189564
-0.398409
0.207837
0.210071
0.209575
0.200037
0.20805
0.204113
0.0202015
0.0115855
0.0176048
-0.0479886
0.0560529
0.350478
0.477181
0.290485
0.0805113
-0.157591
0.260757
0.324406
0.228261
0.389705
0.371025
0.404542
-0.122812
-0.262937
-0.106634
-0.15531
0.198328
0.196352
0.192658
0.189791
0.206311
0.202271
0.206746
0.201807
0.204306
0.206638
-0.0289448
-0.0482129
-0.0877781
-0.163327
0.305701
0.392509
0.240865
0.24317
0.149439
0.0347076
0.029471
0.0294944
0.0284993
0.0691155
0.0709082
0.0798388
0.0811466
0.0567431
0.0543006
0.0669421
0.0661571
0.0720984
0.192356
0.190865
0.195707
0.199785
0.155947
0.161353
0.132847
0.149671
0.136593
0.0836693
0.11599
0.0965558
0.0117623
0.0095752
0.00742543
0.0296047
0.034016
0.017148
0.0137626
0.0195322
0.0135605
0.0118599
0.0213958
0.0241193
-0.257163
-0.404251
0.714469
0.583465
0.35208
0.197783
0.204338
0.198612
0.201437
0.204133
0.209718
0.207464
0.203435
0.190479
0.191453
0.188444
0.187902
-0.350436
-0.463087
-0.33817
-0.398479
-0.249526
0.304201
0.0655086
0.00259613
0.000992015
0.202036
0.536586
0.323256
0.419653
0.456008
-0.610708
-0.272895
-0.571329
0.000504372
-0.109148
0.362787
0.415276
0.437733
0.38353
0.332483
-0.540824
0.237911
-0.34114
-0.30449
-0.139745
-0.231584
0.430148
0.354354
0.363147
0.392717
0.416142
0.36285
0.338701
0.340533
0.384344
0.38567
0.17423
-0.0199108
-0.0745146
-0.106828
0.341205
0.217317
0.27361
0.18867
0.192356
0.196204
0.193815
0.181435
0.187307
0.185566
0.186927
0.18986
0.198716
0.197498
0.195141
0.197962
-0.0253646
-0.0157684
-0.0208057
-0.214906
-0.182879
-0.272957
-0.0922057
0.136732
0.110144
0.33567
0.40744
0.0862929
-0.0875998
-0.0490048
0.0224163
0.177934
0.173081
0.126848
0.163552
0.178199
0.151721
0.210128
0.195245
0.0503573
0.0615415
0.0436354
0.0408973
0.101587
0.120738
0.118341
0.055412
0.057088
0.0349965
0.0321057
0.0892143
0.0578003
0.0720398
0.0737054
0.0304571
0.0320342
0.0353898
0.0477867
0.0469107
0.0507869
0.187999
0.188425
0.188694
0.202114
0.211114
0.224473
0.194823
0.175518
0.166318
0.169873
0.148729
0.159477
0.153228
0.160549
0.177573
0.185302
0.185203
0.186145
0.172882
0.174733
0.165942
0.166479
0.148465
0.131233
0.11996
0.0245236
0.0148017
0.0197639
0.0198023
0.015786
0.0176835
0.0498189
0.0409779
0.0457166
0.0395916
0.0454532
0.0226875
0.0207358
-0.108844
0.0241386
-0.375568
-0.328896
-0.456279
0.685404
0.744015
0.584422
0.497531
0.520776
0.625199
0.65801
0.422017
0.501222
0.502847
0.386917
0.696484
0.200241
0.200385
0.198422
0.197139
0.198058
-0.35827
-0.314454
-0.262252
-0.215017
-0.242995
-0.179658
-0.305519
0.250121
0.341428
0.172038
0.299143
0.31452
0.261033
0.286318
0.291356
0.123461
0.191404
0.246659
0.207177
0.241006
0.262761
0.235217
0.2578
0.207568
0.168496
0.169131
0.116383
0.130809
0.108763
0.0917011
0.187812
0.166246
0.176471
0.167345
0.191539
0.214926
0.206219
0.225028
0.244374
0.174602
0.140608
0.147316
0.172284
0.139298
0.153253
0.162806
-0.858545
-0.853808
-0.458376
-0.525718
-0.394451
-0.412646
-0.437674
-0.47328
-0.291725
-0.809521
-0.830381
-1.37913
0.169874
0.612588
0.399961
0.292031
0.415489
0.389791
0.392231
0.43383
0.433189
0.330696
0.348291
0.354451
0.311647
0.324082
0.378391
0.364797
0.195484
0.0388898
0.0026155
-0.00544568
-0.10944
-0.085007
0.123113
0.040386
-0.0202958
-0.0112535
0.166884
0.0604894
0.125025
0.153027
0.0680046
0.0514838
0.230851
0.297529
0.28264
0.259734
0.179439
0.19242
0.227693
0.265317
0.286115
0.321949
0.187644
0.194495
0.194486
0.191197
0.190838
0.191766
0.191523
0.192895
0.194988
0.195399
0.195229
0.0262612
0.0372222
0.00319878
0.00865345
0.0439803
0.0258786
0.0676239
0.0491543
0.0453496
0.0469971
0.0300191
0.00590663
0.0226917
0.0384922
0.170469
0.207109
0.196395
0.143372
0.262211
0.360341
0.419649
0.37353
0.229343
0.251665
0.276566
0.0976456
0.0976397
0.0875615
0.106382
0.110355
0.0434372
0.0404146
0.0428058
0.0492166
0.0497645
0.0371637
0.0270213
0.0283118
0.0314349
0.0319994
0.031454
0.177103
0.172423
0.172027
0.167041
0.166978
0.178384
0.180604
0.181416
0.184798
0.186246
0.179124
0.184215
0.185726
0.0353811
0.0275585
0.031801
0.029103
0.0292661
0.0240798
0.0237363
0.198209
0.126538
0.245352
0.0222373
-0.21747
-0.0926874
0.204867
0.267522
0.0146626
0.570053
0.471942
0.185692
0.282668
0.572454
0.381287
0.601706
0.502388
0.705124
0.631626
0.730051
0.589372
-0.337181
-0.0443256
0.0458266
-0.596862
-0.305847
-0.0773656
-0.163245
-0.105808
-0.156291
-0.0502747
-0.348782
-0.486062
-0.718527
-0.48404
-0.255921
-0.211674
-0.281425
-0.349503
-0.45189
-0.864077
-0.522794
0.29153
0.311757
0.328168
0.298156
0.323831
0.251228
0.246021
0.261486
0.272695
0.263196
-1.09747
-0.802485
-1.70319
-0.942436
-0.499977
0.264304
0.176269
0.474973
0.351276
0.408257
0.383736
0.359325
0.319592
0.323548
0.358599
0.052412
0.150604
0.128502
0.140101
0.0353185
-0.0177165
0.273483
0.262991
0.304824
0.324358
0.290415
0.32499
0.187524
0.185878
0.186421
0.184046
0.179381
0.18034
0.117108
0.0827243
0.133443
0.116086
0.0805827
0.0672427
0.0418138
0.0396832
0.0366519
0.0353284
0.037079
0.0416001
-0.115445
-0.0352054
-0.0551539
0.0504337
-0.361171
-0.211194
-0.293447
-0.182708
-0.219161
-0.330528
0.444929
0.637915
0.52901
0.606342
0.504518
0.48594
-0.100204
-0.330309
-0.300539
-0.120962
0.0654443
0.0507845
-0.5163
-0.386951
0.437864
0.542153
0.42493
0.351272
-0.00682016
0.0731028
0.227582
0.154444
0.202424
0.280972
0.277289
-0.312359
-0.362137
0.042554
0.205389
-0.660828
-0.302736
-0.440082
-0.0678815
-0.299914
)
;

boundaryField
{
    wall-4
    {
        type            zeroGradient;
    }
    velocity-inlet-5
    {
        type            zeroGradient;
    }
    velocity-inlet-6
    {
        type            zeroGradient;
    }
    pressure-outlet-7
    {
        type            fixedValue;
        value           uniform 0;
    }
    wall-8
    {
        type            zeroGradient;
    }
    frontAndBackPlanes
    {
        type            empty;
    }
}


// ************************************************************************* //
