/*--------------------------------*- C++ -*----------------------------------*\
| =========                 |                                                 |
| \\      /  F ield         | OpenFOAM: The Open Source CFD Toolbox           |
|  \\    /   O peration     | Version:  4.0                                   |
|   \\  /    A nd           | Web:      www.OpenFOAM.org                      |
|    \\/     M anipulation  |                                                 |
\*---------------------------------------------------------------------------*/
FoamFile
{
    version     2.0;
    format      ascii;
    class       surfaceScalarField;
    location    "8";
    object      phi;
}
// * * * * * * * * * * * * * * * * * * * * * * * * * * * * * * * * * * * * * //

dimensions      [0 3 -1 0 0 0 0];

internalField   nonuniform List<scalar> 
1300
(
3.75095
5.62643
-6.37362
3.75095
-6.23997
5.62643
-4.67303
4.67303
-1.55985
1.55985
1.87799
1.87297
-5.24284
5.24284
-5.26198
5.26198
-2.94619
2.94619
-5.24635
5.24635
-5.06853
5.06853
4.64997
-4.64997
-5.10055
5.10055
-2.02531
2.02531
-5.69776
5.69776
3.15495
-3.15495
-5.33012
5.33012
-0.655371
0.655371
-0.548545
4.2995
3.20241
3.20241
-2.71467
2.71467
-4.86042
4.86042
6.21842
-6.21842
9.634
-9.634
-3.26038
-3.35846
1.33374
-8.08193
-4.90624
-4.90624
-8.4406
8.4406
-2.81417
2.81226
3.06367
-3.06367
-1.50817
1.50817
-4.48907
-0.183959
-4.48907
4.97041
-0.297383
4.97041
-1.72959
0.169745
-1.72959
4.13924
-4.13924
1.3755
0.184341
1.3755
3.01832
-3.01832
-1.87861
3.7566
1.87234
-1.86929
6.16879
-1.88166
3.75463
-4.78794
4.78794
-5.38495
0.142117
-5.38495
5.16445
0.0783892
5.16445
-5.29757
5.29757
-5.23284
-0.0291333
-5.23284
5.29509
-0.0331094
5.29509
3.14189
-3.14189
-2.98311
0.0369185
-2.98311
2.88103
0.0651607
2.88103
0.354084
5.27235
-5.98051
8.79277
-5.27235
0.0259914
5.21003
0.0363243
5.21003
-5.10671
0.0381852
-5.10671
5.01347
0.0550576
5.01347
4.73254
-0.0825668
4.73254
-4.77111
0.121136
-4.77111
-3.30218
-3.31311
-5.16981
0.0692576
-5.16981
-2.0596
0.0342876
-2.0596
2.02218
0.00312742
2.02218
-3.79203
3.79203
-5.71194
0.0141826
-5.71194
3.08549
0.0694631
3.08549
1.87079
1.88017
5.62174
-5.62174
2.46679
-5.32154
-0.00857841
-5.32154
-5.34647
-4.28753
5.34647
-0.0163485
-0.956704
0.301333
-0.956704
3.15063
0.0517811
3.15063
2.81485
0.0661823
-2.81485
0.100175
3.52314
-3.52314
2.084
0.630672
2.084
-5.56851
5.56851
4.95319
0.0602779
-4.95319
0.0927726
6.15736
0.0610668
6.15736
-6.19949
-0.0189335
-6.19949
3.33621
-6.69466
-3.30867
5.00298
0.0975706
-5.00298
0.0967474
3.0796
-0.0159257
3.0796
-3.0177
3.0177
-3.04515
-0.0185197
-3.04515
-2.15589
0.647716
-2.15589
0.935121
0.573049
0.935121
-4.36227
-0.126799
-4.36227
-5.36842
-0.343525
5.36842
-0.398004
1.52812
-1.52812
-1.86047
0.130875
-1.86047
-4.2399
-0.122374
4.2399
-0.100657
-4.03832
-0.100925
-4.03832
-3.02633
-0.0188252
3.02633
-0.00800786
3.0747
0.0759301
-3.0747
0.0563793
-1.87031
3.75048
-1.88064
3.75298
-4.63406
-0.153885
-4.63406
4.9544
-0.166452
4.9544
5.5845
0.113261
-5.5845
0.199545
5.14574
0.0187109
5.14574
-5.27819
-0.0193749
-5.27819
5.31942
-0.0218528
5.31942
5.1955
-0.0497653
-5.1955
-0.0373417
5.3166
-0.0215131
5.3166
3.17829
-0.0363929
3.17829
-3.11604
-0.0258548
-3.11604
3.00595
-3.00595
2.99055
0.0153943
-2.99055
0.00744323
-11.1311
11.1121
-0.0348817
-11.0962
5.17515
5.17515
4.20096
0.53158
4.20096
-4.99545
0.224337
-4.99545
3.3097
-6.61837
3.27055
-6.57273
3.35327
-11.4352
3.33904
-6.65215
5.26693
-5.26693
5.21338
0.0535522
-5.21338
0.0435657
-2.0567
-0.00289885
-2.0567
-3.56901
-0.223022
-3.56901
4.07872
-0.286681
4.07872
-2.99451
2.99451
-3.02572
0.0312129
3.02572
0.0597691
5.31669
-9.29543e-05
-5.31669
-0.0048516
1.17713
0.198376
-1.17713
0.220424
3.71012
-0.186981
3.71012
-3.33709
-0.186051
-3.33709
-2.06381
0.00711704
2.06381
0.0201858
-5.81685
0.248335
-5.81685
-11.1895
0.0932844
-11.1532
-6.10621
-6.10621
2.3344
11.1272
-3.09867
-0.0173652
3.09867
-0.0190769
2.99802
-0.00351446
-2.99802
-0.0196767
-3.02249
0.0165481
3.02249
-0.00479394
-2.67603
0.520148
-2.67603
-0.60113
0.60113
-0.575554
-0.0255757
0.575554
0.359567
2.06221
-0.534094
2.06221
1.95908
0.0630966
-1.95908
0.0986186
-3.93229
-0.106024
-3.93229
5.14545
-0.191049
5.14545
-3.22636
-0.110731
3.22636
-0.04807
-0.0340104
11.1462
-5.14114
0.0344265
5.14114
-11.2072
11.2417
-3.33058
0.654543
3.33058
0.870382
5.29
0.278513
-5.29
0.294551
5.30555
0.013875
-5.30555
0.0386171
-3.32018
-0.248832
-3.32018
-4.38209
-0.251967
4.38209
-0.303378
-11.472
-0.20337
11.6754
-11.417
6.02022
0.137141
-6.02022
11.3788
-1.03538
-0.492737
1.03538
-0.434253
2.47507
-0.412851
2.47507
3.86206
-0.15194
-3.86206
-0.0702327
-5.26585
-0.0123415
5.26585
-0.120406
-2.9435
-0.37668
2.9435
-0.468434
-4.26698
4.31876
1.90181
-3.32212
-3.37254
-7.60965
1.84066
1.90982
4.30745
-7.03293
-4.40227
-6.93618
7.26109
-6.96654
-9.20588
9.12331
7.39153
-7.49246
-5.78382
5.84359
6.36048
-6.36849
1.88217
1.87442
10.597
-10.4549
-10.3788
10.2249
10.2292
-10.2583
10.6833
-10.7027
-12.3185
12.3323
-5.70189
5.7388
-6.60838
6.58253
-6.73644
6.68837
-3.36005
-3.21267
8.9992
-8.92995
11.7403
-11.7489
-10.8662
10.8804
3.34564
0.973116
3.42157
-1.88333
3.7655
-1.8713
3.77311
3.28522
-6.64527
3.33316
-6.7057
6.03386
5.70648
-6.01751
-1.59214
-5.86151
5.84559
-5.8278
5.823
8.08304
-8.267
-1.88723
3.76166
-1.86575
3.77557
-3.42888
-2.35494
3.35942
0.948025
5.54991
3.4493
-5.64748
-1.2887
-7.54846
7.39652
-7.84267
7.65662
-0.44404
5.8328
-5.38876
4.41638
-1.57981
7.41261
5.68129
5.90562
5.86611
-5.5876
1.10043
-6.48919
-6.39642
-2.65789
2.78876
2.6466
-2.46226
5.71853
1.673
5.61788
-5.386
-2.10646
-5.49203
3.82269
2.0209
3.85391
4.04925
2.31123
4.03042
3.04618
-3.02704
-0.0191447
-3.10327
6.14946
0.734617
-5.45821
-4.51019
6.8488
3.74819
6.92719
-7.11109
-3.34378
-6.91155
-6.29373
-4.08502
-6.5457
6.61649
3.60838
6.45004
-7.93697
7.81657
6.80496
3.4242
6.77185
-6.78374
-3.47455
-6.82108
10.4232
-2.69598
-7.72725
-6.89996
-5.41851
6.92181
3.76151
7.48219
4.85015
7.52081
3.57658
6.84665
-7.33809
1.91958
-3.82369
-1.8782
-3.81625
3.70485
2.03395
3.77001
-4.1401
-2.46828
-4.15747
-4.20194
-2.5345
4.23833
2.3442
-4.28368
-3.55899
4.39442
2.29395
2.97989
-7.38217
3.67225
-6.88493
-6.25148
-2.67846
-6.20792
4.03712
2.68524
-6.72236
-2.60815
10.906
-5.19951
9.31385
-7.31527
-4.43365
-7.32012
-7.58988
-3.27635
-7.9334
-5.82577
5.57694
-5.9385
5.65182
11.0145
-5.40332
-5.61116
-3.89536
-2.47313
3.83898
-0.417408
-3.77095
3.75181
-0.00545007
3.76766
4.74078
4.32337
-3.85017
-1.97762
-3.86985
3.82985
1.99315
3.8464
6.53478
1.54826
6.2374
-5.96892
-2.29808
-6.09572
9.44673
-8.79901
2.94522
-2.9381
5.12512
2.5315
-4.93814
-2.61032
5.92751
-2.94835
-2.97915
-12.3164
10.524
1.79239
-4.90383
-0.487454
0.167917
-5.45865
-3.74723
5.33752
0.568108
11.0922
7.34493
-5.51303
5.76136
6.16238
6.22265
-0.173767
5.91764
-5.2631
5.55255
-2.44116
-3.11139
4.97933
-5.1017
-1.11639
-5.10622
3.98982
0.516177
1.82334
-1.52201
-2.15214
-0.505754
-2.05352
1.6066
1.04
1.80498
0.99688
1.79189
-2.88049
0.500634
2.37985
-1.88361
-1.96163
-3.55183
-1.02081
4.57264
5.43482
1.9617
-5.36459
-0.127438
2.81593
-2.8128
-0.859224
-2.69261
1.9038
-2.76303
-3.38636
-1.84141
5.22776
-3.3422
-0.527652
3.34571
0.508195
-3.76322
-2.09829
3.78174
0.248682
-3.07136
6.12544
-3.05408
-5.04899
2.55257
3.59689
4.57346
-4.86934
2.47813
2.39121
-1.27245
5.91279
1.0144
5.9315
-9.16334
5.81955
7.52532
3.35509
-7.63859
0.72704
-8.4363
9.68357
-8.27578
-1.40779
5.11928
4.56429
5.3121
5.70238
-3.97317
9.28527
-0.85971
-7.41607
9.29601
-5.94092
5.27607
-11.217
-10.9785
3.56238
-6.87294
8.51623
-1.64329
-2.50578
-5.43119
9.37873
-0.827798
-8.55093
5.62224
-5.33653
-5.28156
10.6181
-8.03251
8.75611
-2.65112
-6.10499
-6.67567
-4.02703
6.68801
1.12856
-9.86708
11.7867
-3.02043
5.91026
0.86159
5.88875
3.91375
-6.02324
2.10949
4.11876
-6.76989
2.54394
-8.56718
-4.79256
9.42125
-4.62869
-7.47103
-6.65872
-0.812304
2.01861
9.76806
-6.86876
5.29228
1.57648
3.31783
0.528578
-3.33322
-0.483027
0.330107
4.42155
-4.75166
4.10012
4.1663
3.29331
1.12824
3.81189
2.0337
-3.79281
-0.364657
-4.0023
1.4678
-1.6581
-3.40529
4.87309
-3.87382
0.468535
-2.6238
-3.44248
6.06628
-4.502
3.04738
3.07806
5.04053
-4.75571
1.31323
-2.34197
-2.41374
2.5606
-4.2187
1.83268
3.04041
4.12664
0.567647
4.75734
4.66392
-7.44258
0.557654
8.11321
-6.82451
1.67091
5.8499
-6.96319
0.304465
-5.90345
1.15142
-6.35093
-5.57094
5.22019
-8.49655
-5.99679
6.60946
-0.372065
-6.21146
-1.72194
-3.83812
-1.98765
-4.2148
-1.82014
-4.11836
-5.79331
-1.23556
-4.55775
4.34138
-4.4092
-2.1365
4.71258
0.939235
-5.83221
5.33947
-4.88978
4.47692
0.0513009
3.70051
4.37467
1.90154
-2.42806
4.3296
-4.14242
5.69068
-6.56507
2.42265
3.8535
-6.15158
-2.71157
4.96936
4.47737
5.54241
7.84494
-12.9859
5.14098
-11.3683
10.169
1.19923
-16.0355
4.66724
-8.19057
2.72632
0.218897
2.72342
0.657697
2.32419
-2.98188
-2.28041
-2.26022
-2.15444
-3.2332
5.38764
1.02049
-3.18662
2.16613
-3.36083
4.38132
-0.00418971
-3.18243
5.17706
-2.85287
5.39596
-3.36502
2.03093
3.07464
5.33687
-2.26223
4.16383
-1.63233
1.67969
-3.94192
-1.55351
-2.95173
4.98569
-3.11455
3.58309
-0.234033
3.81712
-3.90544
0.957083
-0.612126
3.55417
3.65435
4.14064
-3.0124
2.78044
-4.41277
-1.16148
-3.84512
-0.804716
-0.724706
-4.42342
5.14813
6.81614
-7.54084
-5.64941
10.273
-4.62363
8.01063
-5.45492
-2.55571
-4.38798
-4.41104
3.86783
2.04981
10.0604
0.272951
-5.72787
-4.99015
-4.11977
3.17617
2.37638
-2.01691
3.80931
1.849
-0.0256579
0.6315
1.17348
1.87927
-1.24777
0.128104
1.75116
-1.3939
2.10329
0.712636
-2.16639
0.112874
-1.40451
3.30832
0.975337
-2.01534
0.767573
1.06945
-3.51061
4.90778
-2.6814
-2.22637
5.97723
0.883027
-3.56443
4.22319
-3.70701
2.16879
-3.1896
-1.39564
-5.10265
-3.42965
-2.33837
4.5045
-3.04927
5.01097
1.11814
-4.88353
6.00167
-3.33645
1.49504
-3.02072
3.73335
-1.04487
-1.97584
2.61297
2.61479
-2.80185
0.109243
-0.188882
2.1786
-2.36748
-0.584426
-2.46803
-4.57403
4.82271
-2.0668
4.54494
2.2628
-1.89623
6.44117
1.84239
-3.73862
-3.2066
-3.73425
-1.34741
3.22606
-1.0075
-5.81358
-7.11249
5.86335
0.0681564
-9.14252
10.2559
-1.11336
-5.39433
-0.425226
5.54451
-7.51965
0.749763
-4.97571
5.28017
6.29457
6.36272
-8.45989
-0.0910447
-4.85151
1.30608
-6.15759
5.87037
-3.03569
6.59807
-7.18882
5.05232
-6.24958
5.19028
-0.967303
5.57129
-3.4618
2.15595
-6.18299
-5.05443
6.96805
-3.54386
7.82964
-4.0538
11.8834
-7.07423
6.90741
4.97603
-1.37176
-5.94836
-6.84771
5.47595
0.059705
5.94845
4.84934
-2.81564
4.48468
2.2023
-4.54427
-2.0164
-6.37393
1.82966
-3.29587
-1.85377
3.68343
3.18675
3.71533
1.26969
-3.23231
6.58997
-7.40227
-1.96128
-3.60966
6.76579
-1.28985
4.01879
-7.62845
-2.33214
6.46887
-2.38901
-4.07986
-1.06555
-4.93124
3.83658
-8.76782
4.65997
-6.38191
1.81358
-10.0042
-4.01862
-4.45288
-1.60644
-3.28334
-6.18927
4.58284
-1.52204
3.81743
-7.98447
5.59546
-2.18458
6.76742
-3.30092
-0.913881
3.76935
0.707571
7.47499
1.58998
-4.30154
-2.6901
4.6692
-1.9791
0.486074
-2.83345
1.83575
2.40096
3.57627
-6.39078
0.2392
-4.06234
-3.74843
8.2258
6.52461
13.3407
0.354823
9.7709
-1.5451
10.1257
3.99731
4.35688
-2.70692
7.8479
2.44121
4.86386
-0.845798
2.87673
1.87763
1.91191
0.900889
2.21646
1.43789
3.17355
0.191664
-2.06856
4.57528
-8.69505
-1.15259
-8.16347
0.959847
5.6561
-4.69625
3.66547
-1.28909
1.68637
0.365788
-1.89146
1.52567
-2.7456
-1.91711
-0.16595
-1.50831
2.27588
1.80001
-2.10993
-0.635667
0.276692
-3.70634
2.91291
-2.80367
-0.188876
5.8128
-2.59762
0.230136
-1.10258
-2.2379
-2.74365
2.63078
6.12943
0.311736
3.07535
5.13445
3.03616
0.220516
4.4213
-6.06459
-4.14588
-6.15563
-0.285266
5.25924
2.02661
7.74144
7.00265
5.7128
-1.91565
-9.31792
6.79513
1.05276
7.99436
-3.9145
-4.85332
4.79594
0.894737
-4.42388
-1.95803
-6.81136
-5.7586
-0.644529
6.23999
-6.83046
5.91658
3.92892
0.628826
-3.91815
-0.534724
3.94373
0.413149
10.5389
-1.01607
-6.69455
7.71062
-4.64003
3.48744
1.16402
2.64529
2.68969
1.40059
-5.29396
-9.99022
-1.92784
-1.58277
-4.15421
0.418432
-2.21844
6.30425
-2.81681
3.74854
4.89381
6.58019
-2.11497
-5.42587
6.7386
-2.99006
3.59012
)
;

boundaryField
{
    wall-4
    {
        type            calculated;
        value           uniform 0;
    }
    velocity-inlet-5
    {
        type            calculated;
        value           uniform -3.75095;
    }
    velocity-inlet-6
    {
        type            calculated;
        value           uniform -5.62643;
    }
    pressure-outlet-7
    {
        type            calculated;
        value           nonuniform List<scalar> 8(6.37362 6.23997 6.61884 6.74819 6.61528 6.64488 6.58025 6.69231);
    }
    wall-8
    {
        type            calculated;
        value           uniform 0;
    }
    frontAndBackPlanes
    {
        type            empty;
        value           nonuniform 0();
    }
}


// ************************************************************************* //
