/*--------------------------------*- C++ -*----------------------------------*\
| =========                 |                                                 |
| \\      /  F ield         | OpenFOAM: The Open Source CFD Toolbox           |
|  \\    /   O peration     | Version:  4.0                                   |
|   \\  /    A nd           | Web:      www.OpenFOAM.org                      |
|    \\/     M anipulation  |                                                 |
\*---------------------------------------------------------------------------*/
FoamFile
{
    version     2.0;
    format      ascii;
    class       volVectorField;
    location    "8";
    object      U;
}
// * * * * * * * * * * * * * * * * * * * * * * * * * * * * * * * * * * * * * //

dimensions      [0 1 -1 0 0 0 0];

internalField   nonuniform List<vector> 
918
(
(0.985058 -0.00178759 0)
(0.00474043 2.96629 0)
(-0.000798749 1.69314 0)
(0.978024 0.00339399 0)
(-0.00529169 1.66239 -6.04774e-22)
(-0.00698431 2.94883 -7.97883e-19)
(0.864686 1.22024 2.74199e-19)
(0.52437 0.27485 -3.69129e-21)
(0.99999 -0.000547839 0)
(0.0452958 1.56264 0)
(-0.00778834 1.57447 0)
(0.881343 0.00260627 0)
(0.0113768 2.93017 0)
(0.0023592 2.79551 0)
(-0.0173874 3.14138 4.64559e-19)
(-0.000219516 1.60799 -8.11916e-21)
(0.646211 0.125992 2.25296e-19)
(0.210769 1.79935 2.14067e-19)
(0.958287 0.0142093 0)
(-0.000607426 1.6004 0)
(0.217427 0.319819 -1.9327e-19)
(1.0019 -0.00506147 0)
(1.00116 -0.00905748 0)
(0.976356 -0.00473226 0)
(0.810737 -0.023717 0)
(0.0140708 2.63637 0)
(-0.0145605 2.91067 2.61107e-19)
(-0.0110053 1.70235 0)
(-0.00587352 1.76672 0)
(-0.00883088 1.71701 0)
(-0.00321847 1.79831 0)
(-0.00424946 1.68401 4.6936e-22)
(0.00118509 1.61425 0)
(-0.0206141 2.98749 -2.78328e-23)
(-0.017041 3.00556 6.3424e-19)
(0.00207303 3.0004 0)
(0.921649 0.00410734 0)
(0.274195 0.855416 -8.33145e-21)
(0.818085 1.26715 -3.47107e-19)
(0.984191 1.04889 3.56018e-19)
(0.691469 1.44776 -6.1605e-20)
(0.74461 1.4052 3.55812e-19)
(0.569633 0.335865 3.59937e-21)
(0.569785 0.245982 0)
(1.19934 0.594372 0)
(0.518182 0.3422 1.67756e-20)
(0.488915 0.267433 -1.74184e-20)
(0.909121 -8.8336e-05 0)
(1.00086 0.0002275 0)
(1.00002 0.000435697 0)
(1.00213 -0.00713026 0)
(1.00118 -0.00197614 0)
(1.00029 -0.000532555 0)
(0.0164028 1.54072 -2.26281e-19)
(0.0305054 1.6838 0)
(0.0679519 1.59602 0)
(0.00941376 1.66557 0)
(0.0230316 1.51929 0)
(0.000958911 1.61198 0)
(-0.010241 1.65649 0)
(-0.0044055 1.56389 0)
(-0.0112742 1.67414 0)
(-0.00468008 1.58301 0)
(0.943709 0.00329829 0)
(0.936677 0.00706285 0)
(0.893905 -0.00110679 0)
(0.925736 0.0143964 0)
(0.859412 0.0114662 0)
(0.0154822 3.00048 2.86071e-19)
(0.0120915 3.00702 0)
(0.0067689 3.00305 0)
(0.0141551 2.99671 3.15242e-24)
(0.00853497 2.95855 -4.32154e-19)
(0.0149435 2.98231 0)
(0.0107908 2.90464 0)
(0.0260436 2.93014 5.45064e-25)
(0.0048831 2.82567 0)
(0.0325204 2.91508 0)
(-0.00779842 2.74719 0)
(0.310068 3.54511 0)
(-0.146226 3.618 0)
(0.139537 3.23769 -4.28805e-19)
(-0.0177219 2.97724 0)
(-0.00096069 1.7632 0)
(-0.00103535 1.68365 8.00751e-21)
(0.000566656 1.61208 -1.24511e-20)
(0.695357 0.171553 -7.72551e-20)
(0.666342 0.093469 -7.55417e-20)
(0.681987 0.196867 -2.33593e-19)
(0.641947 0.155557 -1.58202e-19)
(0.217849 1.29175 0)
(0.27559 1.86089 -2.36186e-19)
(0.426411 1.78094 3.91946e-19)
(0.981571 0.0137465 0)
(0.926015 0.0149751 0)
(1.00068 -0.000118214 0)
(1.00315 0.0100097 0)
(1.00164 0.0125247 -4.32458e-19)
(0.991217 0.0115552 3.31009e-19)
(-0.00317568 1.67506 0)
(0.000644832 1.60058 0)
(-0.00940138 1.72619 0)
(-0.00561169 1.68673 0)
(-0.00109788 1.60438 0)
(0.325339 0.337822 6.09386e-20)
(0.348007 0.28177 0)
(0.994814 -0.0095959 0)
(0.953493 -0.00680955 0)
(0.897325 0.0151621 0)
(0.873731 0.00998698 0)
(0.843613 -0.0108541 0)
(1.05313 0.00219613 0)
(0.83592 0.0309198 0)
(0.75334 0.0055791 3.03386e-19)
(-0.035821 2.86467 1.28226e-19)
(0.0439372 2.90799 0)
(0.0564384 2.8833 0)
(-0.00849262 2.69965 0)
(-0.0136929 2.98538 2.38276e-19)
(-0.0183263 2.89566 0)
(-0.0157017 2.98777 -7.58554e-19)
(-0.0133921 2.92592 2.63182e-19)
(-0.00585202 1.78626 0)
(0.000790945 1.77316 0)
(-6.05821e-05 1.68779 -2.16686e-22)
(0.00359527 1.68117 0)
(0.00156386 1.60513 0)
(0.96557 0.00449071 0)
(0.925579 0.00479345 0)
(0.904903 -0.00805135 0)
(0.963727 0.00126105 0)
(0.913912 -0.00292929 0)
(0.38074 1.1026 1.08899e-20)
(0.498449 1.20416 0)
(0.185303 0.697159 -1.82714e-21)
(0.175716 0.42904 0)
(0.946052 1.10493 -1.00901e-19)
(1.0508 0.89744 2.16982e-19)
(0.398631 1.78137 0)
(0.552939 1.63119 0)
(0.622476 1.6108 0)
(0.253713 0.403976 -9.49659e-20)
(0.611656 0.301271 0)
(0.600462 0.220886 4.56187e-20)
(1.03714 0.950863 0)
(1.11901 0.800659 0)
(1.13453 0.747944 -1.96184e-19)
(1.18437 0.645801 0)
(1.23358 0.439283 2.7533e-20)
(0.958156 0.000987905 0)
(0.949071 0.00169636 0)
(0.909887 0.00151897 0)
(0.978556 -0.00869738 0)
(0.956428 -0.00376395 0)
(0.925083 -0.00429742 0)
(0.999589 0.00143332 0)
(1.00077 0.00224436 0)
(0.999604 0.00123231 0)
(0.00596323 1.60815 1.21736e-19)
(0.0358223 1.53163 0)
(0.00856124 1.62694 2.03074e-19)
(0.0186941 1.56659 -1.74421e-19)
(0.115305 1.80793 -1.75379e-19)
(0.0330414 1.71774 0)
(0.150629 1.70452 0)
(0.000423808 1.64603 0)
(0.00442192 1.52488 0)
(-0.00463106 1.68126 -5.54148e-22)
(-0.00586375 1.61703 0)
(-0.000410925 1.6904 -2.72706e-20)
(0.000937064 1.62071 5.23789e-20)
(-0.0134966 1.64938 0)
(-0.00929523 1.65655 0)
(-0.00216116 1.54615 0)
(-0.00576584 1.6812 0)
(0.000977851 1.58897 0)
(0.998775 0.00936733 0)
(0.957251 -0.00233317 0)
(0.983006 0.00617709 0)
(0.937583 0.00330231 0)
(0.897599 0.00196009 0)
(0.950834 0.00613976 0)
(0.94463 -0.00144203 0)
(0.894288 -0.000706493 0)
(0.00515582 3.06291 -2.35816e-21)
(0.0168244 3.05876 0)
(0.0151887 2.97015 0)
(0.00895407 2.8774 0)
(0.985004 3.99432 0)
(1.33283 3.26833 4.84734e-19)
(0.0659326 3.07139 0)
(-0.0254201 2.90567 0)
(0.00586389 1.76033 0)
(0.00598714 1.75019 0)
(0.00288552 1.75373 0)
(0.0010988 1.78608 2.16551e-21)
(0.00445373 1.77672 0)
(-0.00444318 1.78372 0)
(-0.000643849 1.60628 1.04356e-21)
(-0.00220447 1.6851 1.64915e-20)
(0.0015936 1.68283 1.27154e-20)
(0.00326374 1.60173 0)
(0.726727 0.127732 1.14925e-19)
(0.680712 0.0505273 -1.11e-19)
(0.183371 1.40462 0)
(0.286589 1.23447 -9.89155e-20)
(0.13135 1.44083 -2.8833e-19)
(0.152603 1.36128 2.87741e-19)
(0.892105 0.0018104 0)
(0.953492 0.00562724 0)
(0.964564 0.0146242 0)
(0.903372 0.00854571 0)
(0.00137359 1.68315 0)
(-0.0020318 1.67874 0)
(0.00251492 1.59385 0)
(0.473888 0.353721 1.54186e-19)
(0.427042 0.348533 -1.88201e-19)
(0.429774 0.268012 0)
(1.17376 0.0830098 -1.134e-21)
(1.15747 0.0369075 0)
(1.08461 0.0386837 0)
(1.00291 0.0109976 0)
(0.743723 0.0975226 0)
(0.780424 0.0740034 -4.87453e-19)
(0.707976 0.0406922 1.8572e-19)
(0.00916156 2.98203 1.64342e-19)
(-0.0328424 2.8673 1.96786e-20)
(0.00188946 3.04829 -5.08009e-21)
(0.0187072 3.04421 1.90627e-19)
(-0.0154477 2.99567 8.77154e-21)
(-0.0124858 2.94912 -3.57314e-23)
(-0.0174786 3.01203 -1.65944e-19)
(0.013218 3.02556 1.18845e-19)
(0.00610515 3.03527 -1.90264e-19)
(0.981758 0.00394249 0)
(0.976378 0.00588023 0)
(0.928739 0.00259621 0)
(0.951285 0.00106296 0)
(0.951378 -0.00667283 0)
(0.895755 -0.00618798 0)
(0.955407 0.00336106 0)
(0.953145 -0.00228847 0)
(0.905299 -0.00475321 0)
(0.719788 1.45989 1.32567e-19)
(0.792454 1.56698 0)
(0.0664172 0.0225411 -5.80968e-21)
(0.297087 0.40826 -1.40782e-19)
(0.209537 0.444398 7.17257e-20)
(0.0763711 0.108556 -1.54329e-19)
(0.400696 0.861186 5.08794e-19)
(0.372168 0.688286 1.27615e-19)
(0.667135 0.240845 1.70949e-19)
(0.640015 0.273603 4.11858e-20)
(0.621371 0.195069 8.75283e-20)
(1.22128 0.48478 1.16745e-19)
(1.2422 0.275441 1.25712e-19)
(0.0140791 1.65724 8.02479e-20)
(0.0197476 1.61257 0)
(1.0312 0.0251012 0)
(1.00239 0.0107922 0)
(0.973197 0.00313648 0)
(0.0116605 3.07477 0)
(0.0208994 2.94445 3.21386e-19)
(0.0174108 2.9572 0)
(0.00671887 2.85134 -3.20282e-19)
(0.00560672 3.09178 7.38661e-20)
(0.00598639 3.08176 0)
(0.902873 1.88002 -9.70559e-20)
(1.3022 2.41762 2.14372e-19)
(0.891843 1.97763 -5.73325e-19)
(0.0200586 2.98274 -1.19414e-19)
(0.0343799 3.00157 0)
(-0.0322489 2.87958 0)
(-0.00166466 1.68282 -2.56076e-21)
(-0.00377436 1.68879 -3.74111e-20)
(-0.000449134 1.61494 -2.91438e-21)
(0.245119 1.33998 3.15898e-19)
(0.337467 1.1827 -2.15417e-19)
(0.026237 1.5736 1.97239e-19)
(0.0824813 1.52298 -2.42265e-19)
(0.0819668 1.45344 2.82885e-20)
(0.00404667 3.11787 -4.10529e-19)
(0.0101003 3.11835 4.64449e-19)
(-0.00974229 2.9812 2.05352e-19)
(-0.00470269 2.97761 -1.80318e-19)
(-0.0224271 2.88166 -2.09259e-19)
(0.00688715 3.0998 -5.40998e-19)
(0.000899702 3.10467 5.48038e-19)
(0.473044 0.726692 0)
(0.457465 0.516296 -1.89859e-20)
(0.156787 0.149744 2.69175e-20)
(0.401965 1.00207 3.73068e-19)
(0.382185 0.860215 -5.71232e-19)
(1.24961 0.177042 -2.04092e-20)
(1.24481 0.321913 0)
(1.23573 0.130934 4.95258e-20)
(-0.0114458 1.69591 -6.64652e-22)
(0.00318082 1.68588 0)
(0.00273471 1.6292 0)
(0.315625 1.25481 -1.10476e-19)
(0.366617 1.12055 -2.57934e-19)
(0.388193 1.05296 4.61648e-19)
(1.0065 -0.0176291 0)
(1.00616 -0.0056323 7.9881e-20)
(-0.00772197 1.78618 0)
(-0.0117725 1.79147 0)
(1.00195 0.00366801 8.51596e-22)
(1.0006 0.0133984 1.61904e-19)
(0.00430758 1.78671 -2.90055e-21)
(0.00148392 1.78663 0)
(0.0317966 3.17538 4.10201e-20)
(0.381298 3.45507 0)
(1.12408 0.628885 2.6921e-20)
(1.01593 0.0164697 -3.58068e-22)
(1.00515 0.00316705 0)
(1.00249 -0.000474599 1.12718e-22)
(0.0526141 1.82947 0)
(0.0358474 1.7314 0)
(-0.00430859 1.79692 0)
(0.00379211 1.7828 3.68218e-20)
(-0.00104861 1.78419 1.94088e-20)
(0.993678 0.0162319 7.08346e-22)
(1.04426 0.0095696 0)
(1.06669 0.0183352 0)
(0.0148134 1.75735 0)
(0.00655347 1.77898 0)
(-0.000738299 1.7919 0)
(0.176357 1.86489 -1.02205e-19)
(1.00962 -0.0245592 0)
(1.00226 -0.0306674 0)
(1.00512 0.0020177 1.00215e-19)
(1.00316 -0.0044367 -1.21083e-19)
(1.00189 -0.00168959 0)
(0.0079399 1.76153 0)
(-0.00303558 1.78651 0)
(0.00505044 1.76835 0)
(-0.000221648 1.79181 0)
(-0.00277834 1.78626 0)
(-0.00295581 1.79005 0)
(1.02206 0.00416516 0)
(1.01643 0.000893217 -4.25493e-22)
(0.688683 1.15016 1.70952e-19)
(1.0024 0.00179068 -9.99175e-20)
(1.004 0.00796415 1.21207e-19)
(1.001 0.00210784 0)
(1.01601 0.0165096 9.56279e-20)
(1.00886 0.0156352 -1.21647e-19)
(1.00239 0.0218165 0)
(0.00370052 1.78372 0)
(0.00139198 1.78664 7.17394e-21)
(-0.00307764 1.78153 -5.24599e-21)
(1.16466 0.239257 -1.46574e-20)
(1.10103 0.0773888 0)
(0.051404 3.0823 -2.04267e-19)
(0.0642961 2.85295 -1.65388e-20)
(0.129928 3.20332 2.8969e-19)
(0.130423 3.22763 3.288e-22)
(0.125672 3.22433 0)
(0.0196694 3.13759 4.62003e-20)
(0.0715271 3.16383 1.98363e-19)
(0.0672745 3.18659 -9.0289e-20)
(0.0253545 3.12884 0)
(0.696936 0.343541 0)
(0.614103 0.399641 0)
(1.06328 0.644697 -1.00233e-19)
(1.08295 0.769779 1.53864e-19)
(1.11068 0.535186 0)
(1.17673 0.498091 0)
(1.01568 0.0145951 -1.80861e-19)
(1.01531 0.0108422 2.28489e-19)
(1.00905 0.0102564 0)
(1.00968 0.0099061 0)
(1.00839 0.00188001 0)
(1.01719 0.00762642 0)
(1.00444 -0.000462367 0)
(1.0218 0.0122101 0)
(1.01386 0.0123158 0)
(1.00957 0.00274346 0)
(0.0498339 1.82223 0)
(0.0309132 1.81751 0)
(0.0629025 1.85047 0)
(0.0657586 1.84693 0)
(0.040212 1.72117 0)
(0.0599468 1.71964 -1.31864e-19)
(0.0307593 1.74299 0)
(0.0344357 1.7399 6.71846e-20)
(0.0323003 1.76757 -6.94634e-20)
(-0.00482058 1.79883 0)
(-0.00550142 1.79787 0)
(-0.00824947 1.7979 0)
(-0.0107517 1.80251 0)
(0.00355049 1.78045 -2.22919e-20)
(0.000381118 1.78482 2.7311e-20)
(0.00688549 1.78819 3.36323e-20)
(0.00628395 1.78783 0)
(-0.00477657 1.78553 -4.53128e-20)
(-0.00423206 1.78252 -2.66572e-20)
(0.00558089 1.77927 1.80974e-20)
(-0.00118834 1.77812 -3.52182e-20)
(0.00727553 1.78579 -4.12529e-20)
(1.00436 0.0148543 1.77518e-19)
(1.00739 0.00598082 -2.20905e-19)
(0.997106 0.0245962 -1.83308e-19)
(0.985582 0.0201086 2.32341e-19)
(1.03904 0.0144173 0)
(1.04157 0.00575915 0)
(1.05885 0.0253241 0)
(1.04357 0.00948526 0)
(1.05952 0.0101242 0)
(1.09126 0.0702533 0)
(1.07181 0.0465212 0)
(1.08629 0.0338765 0)
(0.00786634 1.77981 -9.24697e-22)
(0.018375 1.75941 0)
(0.0130068 1.76995 0)
(0.00709619 1.78082 7.98311e-21)
(0.00749843 1.78103 -3.52565e-22)
(0.00657295 1.76866 7.28706e-21)
(0.00332018 1.77414 -7.33608e-21)
(0.00114724 1.78824 0)
(0.000928819 1.78772 0)
(-0.00134337 1.78609 0)
(-0.001215 1.7928 0)
(-0.000698033 1.79269 0)
(0.23738 1.8225 1.68604e-19)
(0.277091 1.76508 8.70698e-20)
(0.345379 1.60441 -7.84667e-20)
(0.174359 1.65714 1.96094e-19)
(0.220897 1.79572 5.32864e-20)
(1.00606 -0.0088371 0)
(1.00635 -0.0263784 0)
(0.992213 -0.0272918 0)
(1.01765 -0.0101837 0)
(1.0096 -0.0121618 0)
(1.00673 -0.0141483 0)
(1.00976 -0.0191477 0)
(1.01028 -0.0208297 0)
(1.01786 -0.00109728 1.74628e-19)
(1.01954 -0.00385173 -2.20037e-19)
(1.01591 0.00532273 -1.74225e-19)
(1.01366 0.00579866 2.18542e-19)
(0.683484 1.21448 0)
(0.564437 1.33409 1.95458e-19)
(0.802719 1.09297 1.28028e-19)
(0.855757 1.07852 -1.71133e-19)
(1.02616 2.73065 -3.20141e-19)
(0.83535 0.120465 1.14456e-19)
(1.10511 0.0973687 0)
(1.15029 0.162553 1.52842e-20)
(1.14521 0.148565 8.20582e-22)
(0.962222 0.119838 0)
(0.127849 2.984 3.69095e-20)
(0.114574 2.89552 -2.60441e-19)
(0.0463989 2.38055 1.83003e-19)
(0.133235 0.205566 -6.98949e-20)
(0.336251 3.40915 -1.67258e-19)
(0.187193 3.31765 0)
(0.224093 3.32994 2.17672e-19)
(0.249936 3.04348 -2.50226e-19)
(0.319524 3.18168 0)
(0.00673117 3.12069 1.0921e-20)
(0.0172444 3.12878 -1.41814e-19)
(0.0153033 3.1245 2.07985e-19)
(0.0348399 3.13978 0)
(0.0336764 3.15073 0)
(1.22166 2.70075 0)
(0.593813 0.84502 -1.06431e-19)
(0.989457 0.915604 -7.79649e-20)
(0.896638 0.967325 0)
(0.793385 0.89697 2.5443e-20)
(1.01397 0.798479 9.94884e-21)
(0.377443 0.456217 -2.2803e-19)
(0.722307 0.341189 -8.75499e-21)
(0.733292 0.301909 8.87291e-20)
(0.616049 0.432943 7.2272e-21)
(0.567171 0.414249 -2.98212e-19)
(0.692896 0.372034 0)
(0.690461 0.427026 1.46233e-19)
(0.688174 0.411494 0)
(0.639433 0.425774 0)
(0.659433 0.369624 0)
(0.751673 0.575829 5.01629e-20)
(1.14673 0.256943 4.24913e-21)
(1.15902 0.37249 0)
(1.19768 0.339256 0)
(0.797848 0.210136 1.34074e-19)
(0.770933 0.538595 -7.53336e-20)
(0.685291 0.496184 1.21515e-19)
(0.877985 0.40155 -1.1048e-19)
(1.02001 -0.00520495 1.19112e-19)
(1.01717 0.00139439 -1.23274e-19)
(1.01795 -0.00306422 0)
(1.02233 0.00761697 0)
(1.01448 0.0134061 -1.1236e-19)
(1.0199 0.00953903 1.115e-19)
(1.01627 0.00331667 0)
(1.017 0.00128855 0)
(1.02345 0.00764478 0)
(1.02261 0.00704392 0)
(1.03005 0.00274131 0)
(1.03009 0.00111841 0)
(0.0265166 1.81266 0)
(0.00889689 1.80427 0)
(0.0844977 1.84216 -6.59954e-21)
(0.170568 1.85562 5.36382e-20)
(0.0984906 1.87179 1.13326e-19)
(0.12907 1.87092 -1.8445e-19)
(0.100304 1.8634 0)
(0.082433 1.7821 -4.9835e-20)
(0.0811875 1.78835 0)
(0.206703 1.77745 -7.69171e-20)
(0.18822 1.71538 2.36884e-19)
(0.115411 1.80509 4.34088e-20)
(0.156899 1.83366 1.50245e-20)
(0.133674 1.84533 -1.20313e-20)
(0.162169 1.79629 -4.022e-20)
(0.155015 1.77289 0)
(0.15185 1.77461 3.94905e-20)
(0.0200287 1.77474 -2.16791e-20)
(0.0415729 1.76322 0)
(0.0500371 1.767 7.66646e-20)
(0.0457631 1.76569 0)
(0.0413654 1.74883 -7.55837e-20)
(0.0459714 1.75472 0)
(-0.00748117 1.77168 -1.86667e-20)
(0.00276436 1.77935 0)
(-0.0111439 1.78067 0)
(-0.0121787 1.77186 2.1141e-20)
(-0.00168565 1.78027 8.28271e-22)
(0.00641621 1.77626 8.2397e-20)
(-0.00692618 1.77613 5.65106e-22)
(-0.00592286 1.76861 1.49957e-20)
(-0.00360332 1.76769 9.35141e-21)
(-0.00613091 1.7963 0)
(-0.00521908 1.79519 0)
(0.0128321 1.7866 5.06599e-20)
(0.00457236 1.77951 3.53817e-20)
(0.00161566 1.78097 -4.93223e-20)
(0.0296388 1.79482 0)
(-8.78356e-06 1.76266 -3.01376e-20)
(0.0022577 1.77417 1.38172e-20)
(0.000240211 1.77622 -4.03569e-21)
(-0.00584195 1.76969 -1.8298e-20)
(-0.0057597 1.7808 -6.19715e-21)
(-0.00698043 1.78128 3.04441e-20)
(1.013 0.00580072 -1.1671e-19)
(1.01313 0.00385778 1.18612e-19)
(1.01097 0.0017763 0)
(0.990631 0.058089 1.7143e-19)
(0.982585 0.0300365 -1.95974e-19)
(0.956119 0.0226734 2.25425e-19)
(0.996488 0.0907665 -2.20264e-20)
(1.02324 0.00327212 0)
(1.02937 0.0124994 1.00752e-19)
(1.03133 0.00419812 -1.00014e-19)
(1.02462 0.0302809 -5.65471e-21)
(1.02753 0.0182305 5.02789e-20)
(1.00845 0.0292127 0)
(0.99905 0.0271754 -1.76937e-20)
(1.00493 0.0226966 0)
(1.00395 0.0238643 0)
(1.01634 0.00368737 0)
(1.01561 0.00496743 0)
(1.00464 0.0220169 3.78188e-20)
(1.00632 0.0207183 -8.54558e-20)
(1.00541 0.0294041 -3.97137e-20)
(0.99934 0.0219785 -4.40273e-20)
(1.0035 0.0363278 8.03932e-20)
(1.04233 0.0433271 0)
(1.03433 0.0853332 0)
(-0.000298186 1.76119 -1.19623e-20)
(0.0144836 1.76112 -1.0065e-21)
(0.00531991 1.75971 0)
(0.00162448 1.77133 1.20937e-20)
(0.0118262 1.77299 1.84453e-21)
(0.00689029 1.77398 -1.77074e-21)
(-0.00396504 1.78199 2.35487e-20)
(-0.000239718 1.78008 -1.41182e-21)
(-0.00499828 1.77917 6.82797e-21)
(0.00230782 1.78024 -1.2235e-20)
(-0.00338305 1.78022 1.45072e-20)
(0.000799775 1.78541 2.80419e-22)
(0.000135878 1.77312 1.16744e-20)
(0.14566 1.76744 -6.92057e-20)
(0.143244 1.79759 3.23571e-20)
(0.519921 1.44986 -1.90131e-19)
(0.350123 1.67985 -8.3634e-20)
(0.42281 1.58491 0)
(0.417267 1.5925 8.24972e-20)
(0.47556 1.51873 1.13707e-19)
(0.209646 1.65457 1.89152e-20)
(0.217959 1.65162 -2.71648e-19)
(0.29216 1.66975 2.2051e-19)
(0.304019 1.64008 0)
(0.23494 1.65229 -1.7174e-19)
(0.0898736 1.69516 3.42152e-19)
(0.15806 1.68584 -1.66684e-20)
(0.100329 1.69986 -4.58532e-19)
(0.836526 1.72507 1.88491e-19)
(0.622137 1.49009 0)
(1.02978 -0.0110433 3.99354e-21)
(1.01876 -0.0199572 -3.339e-21)
(1.02543 0.00210133 -5.89746e-20)
(1.0338 0.000223872 5.93648e-20)
(1.03422 -0.00697491 0)
(0.387295 1.03292 0)
(0.483247 0.895756 0)
(0.697033 0.980816 0)
(0.681404 0.742745 0)
(1.08118 2.77208 -2.0121e-20)
(0.884434 2.43657 0)
(0.474967 2.82088 -2.54372e-21)
(0.406185 2.40141 0)
(0.517892 2.57126 -1.48694e-19)
(0.525571 2.62999 9.50795e-20)
(0.839626 0.140577 0)
(0.820759 0.148635 3.30214e-20)
(0.900336 0.111853 1.68711e-19)
(0.854115 0.125877 -6.61431e-20)
(0.837886 0.0866548 -2.06392e-19)
(1.00216 0.192797 -1.06801e-19)
(0.907077 0.28316 -5.28079e-21)
(0.869328 0.257917 1.5539e-19)
(0.928426 0.179458 1.17748e-19)
(0.928076 0.140422 -2.13357e-19)
(0.911532 0.147468 2.7473e-20)
(0.925394 0.204302 -5.56085e-20)
(0.911997 0.173897 0)
(0.965824 0.129055 1.01259e-19)
(0.98016 0.135482 0)
(0.975138 0.169012 0)
(1.04091 0.108667 3.40604e-20)
(1.0088 0.139372 -5.55527e-21)
(1.00056 0.197439 -1.79317e-20)
(1.05362 0.179332 0)
(1.00326 0.0243791 8.87103e-20)
(1.00345 0.0330377 1.0411e-19)
(1.00675 0.0260826 -8.6876e-20)
(1.01102 0.0479667 -7.02369e-20)
(1.00054 0.0553608 -1.20736e-19)
(0.951487 0.107318 0)
(0.963404 0.0891586 0)
(0.949111 0.0372096 -8.05731e-20)
(0.913225 0.0504208 3.42125e-20)
(1.0029 0.0873487 1.0001e-19)
(1.00435 0.107373 -1.03107e-19)
(1.01515 0.1295 9.27063e-20)
(1.00245 0.129933 0)
(1.01308 0.0896157 0)
(1.0004 0.0744738 -4.39111e-20)
(1.0079 0.0802442 -8.01278e-20)
(0.761103 1.40529 -2.37687e-19)
(0.829172 2.2219 2.14986e-19)
(1.20106 2.95758 1.54678e-19)
(1.29926 3.14626 -4.11096e-20)
(1.20132 2.86283 3.17724e-19)
(1.27705 2.81448 -1.57808e-19)
(1.08859 2.40316 2.41138e-20)
(1.2852 3.08837 1.64925e-19)
(1.25091 3.1158 -2.3754e-19)
(1.30436 3.27616 -1.40316e-19)
(1.39652 3.03839 1.64285e-19)
(1.35844 2.92238 0)
(0.597091 0.869061 -4.77398e-21)
(0.0832854 1.32977 1.45518e-19)
(0.50252 0.576431 1.54021e-19)
(0.282027 0.34758 1.50326e-19)
(0.556924 0.451378 1.68327e-19)
(0.547334 0.494072 -2.68272e-19)
(0.537601 0.531069 2.19765e-19)
(0.497546 0.498188 -8.89808e-20)
(0.469767 0.410505 2.02331e-19)
(0.805672 0.248312 -7.42927e-20)
(0.757158 0.299166 0)
(0.763122 0.264544 4.86365e-21)
(0.664475 0.506743 7.58399e-20)
(0.655496 0.484912 -2.79436e-19)
(0.580542 0.512662 4.82624e-21)
(0.60917 0.469406 0)
(0.647508 0.745489 6.42056e-20)
(0.842828 0.714288 3.65341e-21)
(0.758941 0.851918 -1.00318e-20)
(0.858875 0.703615 -2.97239e-21)
(0.900482 0.782323 6.68528e-21)
(0.902709 0.766017 -6.87919e-21)
(0.788874 0.593318 -8.55209e-20)
(0.893792 0.672852 2.7697e-21)
(0.965118 0.673607 0)
(0.943937 0.648808 -6.78764e-21)
(0.939723 0.286609 2.80005e-20)
(1.05023 0.272619 8.31594e-21)
(0.978434 0.241979 4.32012e-20)
(0.928572 0.330971 -6.12858e-20)
(0.993585 0.38693 0)
(1.03153 0.384679 0)
(0.838524 0.334834 3.61214e-21)
(0.827916 0.29287 0)
(0.850071 0.264874 7.82792e-20)
(0.847017 0.263655 -3.03185e-21)
(0.869691 0.400897 3.01305e-19)
(0.820745 0.47946 7.78845e-20)
(0.82582 0.435487 -1.04391e-19)
(0.756297 0.426111 1.12345e-19)
(0.743226 0.423262 7.54154e-20)
(0.727647 0.407053 -7.32632e-20)
(1.01753 0.0141834 9.31455e-20)
(1.02224 0.00695392 0)
(1.02457 0.0113796 6.35984e-20)
(1.01666 0.0145052 -1.4194e-19)
(1.02059 0.00625819 6.99132e-20)
(1.0212 0.00323744 -1.47033e-19)
(1.02077 -0.00208148 0)
(1.0219 -0.0048204 -3.01884e-20)
(1.02654 -0.000270355 7.5656e-20)
(1.0234 -0.000914856 -3.90967e-20)
(1.02325 -0.00230814 2.86763e-20)
(-0.0181619 1.79665 0)
(-0.0139608 1.78298 0)
(-0.00128728 1.80236 0)
(-0.0123434 1.8002 0)
(0.0530177 1.80278 3.09473e-20)
(0.0550998 1.81067 -8.48894e-21)
(0.0668073 1.79306 -1.76454e-20)
(0.0647738 1.81373 -1.42154e-21)
(0.0182295 1.79855 -2.9291e-20)
(0.0208997 1.80111 2.14804e-20)
(0.0468684 1.81048 -9.59249e-21)
(0.0233557 1.81526 -9.00875e-21)
(0.00253441 1.79692 -1.13404e-21)
(-0.00804165 1.79203 -3.14825e-21)
(0.0477619 1.76678 -8.30413e-20)
(0.048216 1.75295 0)
(0.0614357 1.74717 5.26703e-20)
(0.0735037 1.78181 3.37403e-20)
(0.124894 1.73876 -3.74773e-20)
(0.1132 1.6898 0)
(0.124011 1.67712 -2.49305e-19)
(0.166125 1.70033 1.75493e-19)
(0.107892 1.7407 -1.01863e-19)
(0.080796 1.7329 5.70213e-20)
(0.0460733 1.70645 0)
(0.00702852 1.77711 -6.15345e-20)
(0.00426613 1.77544 -7.31614e-20)
(0.00568824 1.78075 0)
(0.0057287 1.77334 -1.66366e-21)
(0.0139387 1.77307 3.19614e-20)
(-0.00607106 1.77635 3.0812e-21)
(-0.0032542 1.78493 -5.00201e-20)
(-0.00434062 1.7765 1.25642e-20)
(-0.00767451 1.76378 1.83838e-20)
(-0.00364871 1.76879 0)
(-0.0036036 1.77904 0)
(-0.000599544 1.79335 1.28222e-20)
(4.44228e-05 1.78696 -3.89601e-21)
(-0.000883926 1.78435 0)
(-0.00257957 1.79396 1.01951e-20)
(-0.00137898 1.79306 -2.00608e-20)
(1.01245 0.0132371 0)
(1.01421 0.0139384 -9.42329e-21)
(1.00941 0.0172007 -6.89288e-20)
(1.01208 0.0240872 0)
(1.0123 0.0262167 0)
(1.01156 0.00871392 -1.90436e-21)
(1.01462 0.00664384 1.12592e-19)
(1.01346 0.00695985 1.37936e-19)
(1.01708 0.00601411 0)
(1.0169 0.00558225 0)
(1.00927 0.0144938 6.86466e-20)
(1.00989 0.010753 0)
(1.01708 0.00871117 0)
(-0.00683492 1.76411 0)
(-0.00551409 1.76301 1.49227e-21)
(-0.00381122 1.75793 7.18568e-21)
(-0.00333742 1.78711 0)
(-0.00363576 1.77637 8.7428e-21)
(-0.00275479 1.78564 -3.99861e-21)
(-0.00136247 1.79061 0)
(0.155928 1.99304 0)
(0.113972 1.82194 -6.58526e-20)
(0.141784 1.84395 0)
(0.0913774 1.82014 1.92338e-20)
(0.148566 1.59776 0)
(0.147871 1.72214 1.30151e-20)
(0.857299 2.62392 -3.35057e-21)
(0.812434 1.85262 -2.32186e-19)
(0.90028 1.78093 -2.45851e-20)
(0.639906 1.53404 9.54065e-20)
(0.548852 2.02619 0)
(0.576782 2.21706 0)
(0.795651 1.6722 0)
(0.76234 1.43607 -3.28603e-19)
(0.342147 2.16493 -1.95674e-19)
(0.540346 2.00688 -5.75107e-20)
(0.376871 2.32807 4.55459e-20)
(0.536807 1.50945 0)
(0.605678 1.47846 0)
(0.581553 1.45929 -1.28296e-19)
(0.567524 1.82988 0)
(0.823406 0.793559 0)
(0.738959 0.896601 1.15993e-19)
(0.710055 0.84225 4.09315e-21)
(0.831324 0.799043 0)
(0.923956 0.95152 -1.77756e-19)
(0.783278 0.884051 1.55612e-20)
(0.768992 0.927858 0)
(0.755331 0.911875 -3.46388e-20)
(0.713556 0.931515 0)
(0.721455 0.883323 0)
(1.05087 3.03721 1.04478e-19)
(1.10866 3.08216 1.54201e-19)
(0.835243 2.84587 -3.34242e-19)
(0.72032 2.80972 4.75251e-20)
(0.985935 2.91791 0)
(0.88976 2.88135 -5.86733e-20)
(0.918626 2.57361 9.24077e-20)
(0.829121 2.29905 -1.79806e-21)
(0.186217 2.30529 0)
(0.313066 1.26984 2.07595e-19)
(0.345414 1.26828 0)
(0.879156 0.193064 0)
(0.825182 0.183319 0)
(0.781649 0.186181 0)
(0.878385 0.21028 -1.23537e-19)
(0.819871 0.216233 7.79577e-20)
(0.910627 0.0522503 -7.11863e-20)
(0.905544 0.0943188 0)
(0.891726 0.100083 3.20168e-20)
(0.867789 0.0795195 1.31747e-19)
(0.880226 0.0557179 -8.12294e-20)
(1.22676 3.37142 -4.08081e-19)
(1.29518 3.29301 0)
(1.17727 3.37666 -7.54216e-19)
(0.667957 3.52902 6.69519e-19)
(0.900577 3.05344 9.99783e-20)
(0.565833 1.03016 1.55504e-19)
(0.584488 0.98456 0)
(0.333393 0.610064 -3.6597e-20)
(0.422569 0.749111 1.74228e-19)
(0.478947 0.569321 -4.57182e-20)
(0.481154 0.571872 5.54149e-20)
(0.607597 0.506716 1.14535e-19)
(0.639722 0.516523 0)
(0.583267 0.625364 0)
(0.543572 0.584925 0)
(0.938187 0.573557 -1.9725e-20)
(0.817693 0.522833 -7.45142e-20)
(0.840353 0.559838 3.69045e-20)
(0.871312 0.505182 -5.5824e-20)
(1.01271 0.467014 0)
(0.989943 0.549484 -3.11056e-21)
(0.787213 0.386557 -1.65494e-19)
(0.790924 0.378825 -1.85687e-19)
(0.762358 0.374047 1.29216e-19)
(0.753673 0.359143 -1.42982e-19)
(0.812753 0.320568 -1.06356e-19)
(0.768651 0.320949 1.30972e-19)
(1.01827 0.00548459 -7.32502e-20)
(1.01823 0.00334784 1.49746e-19)
(1.01642 0.0114812 9.0296e-20)
(1.01362 0.00719741 -1.09765e-19)
(1.00844 0.0120205 0)
(1.01443 0.00667789 -1.77397e-19)
(0.050995 1.79362 1.30508e-20)
(0.0444953 1.79401 0)
(0.0675678 1.78388 1.0433e-19)
(0.0676472 1.78785 -9.48826e-20)
(0.0672399 1.7911 3.28363e-20)
(0.0651471 1.79358 0)
(-0.00899418 1.76787 0)
(-0.00616564 1.77182 -5.02436e-21)
(-0.00760731 1.77626 4.52616e-21)
(-0.00651299 1.77365 9.74651e-22)
(-0.0102892 1.76818 -8.426e-21)
(-0.00921476 1.76893 5.10435e-21)
(0.0968924 2.14703 5.90684e-20)
(0.0455112 2.12616 -6.49117e-20)
(0.0317602 1.81672 6.60779e-20)
(0.0563911 2.05722 6.13404e-22)
(0.304253 1.17902 0)
(0.174623 1.47364 1.32944e-19)
(0.227088 1.2979 -1.28852e-19)
(-0.0189215 1.59455 -6.48117e-20)
(0.0248778 1.58085 0)
(0.205615 1.27258 0)
(0.373828 1.9945 2.99503e-19)
(0.510093 1.69397 5.47561e-19)
(0.565941 1.7942 -3.65367e-19)
(0.437725 1.67961 -6.96282e-20)
(0.329939 1.82856 1.13874e-19)
(0.310251 1.66858 -2.8267e-19)
(0.851297 2.04938 2.32416e-20)
(0.853826 2.32572 0)
(0.869084 2.03584 1.68247e-19)
(0.886028 2.83204 0)
(0.833816 2.71693 0)
(0.688949 2.1793 3.77583e-20)
(1.09389 3.05234 1.67398e-19)
(0.972062 2.94637 -9.78521e-20)
(0.225954 1.01026 0)
(0.303267 0.869701 -9.12676e-20)
(0.570905 0.901406 -6.97407e-20)
(0.353747 1.94087 0)
(0.409197 2.73042 -7.08651e-20)
(0.418483 2.55669 0)
(0.684709 0.687072 -1.31423e-19)
(0.746115 0.658818 1.61513e-19)
(0.75475 0.578586 -1.52225e-19)
(0.613625 0.639631 -1.98718e-20)
(0.668258 0.583007 -8.10835e-20)
(1.12652 2.71501 -1.2635e-19)
(1.12293 2.76708 1.83885e-19)
(0.736793 2.1294 6.59264e-20)
(0.844208 1.70272 -4.85006e-20)
(1.07885 2.09701 3.01467e-19)
(1.15985 2.4974 2.39156e-20)
(1.0846 2.57266 -2.01161e-19)
(0.937219 1.87473 -7.63448e-21)
(0.932058 1.42036 -1.78418e-19)
)
;

boundaryField
{
    wall-4
    {
        type            noSlip;
    }
    velocity-inlet-5
    {
        type            fixedValue;
        value           uniform (1 0 0);
    }
    velocity-inlet-6
    {
        type            fixedValue;
        value           uniform (0 3 0);
    }
    pressure-outlet-7
    {
        type            zeroGradient;
    }
    wall-8
    {
        type            noSlip;
    }
    frontAndBackPlanes
    {
        type            empty;
    }
}


// ************************************************************************* //
