/*--------------------------------*- C++ -*----------------------------------*\
| =========                 |                                                 |
| \\      /  F ield         | OpenFOAM: The Open Source CFD Toolbox           |
|  \\    /   O peration     | Version:  4.0                                   |
|   \\  /    A nd           | Web:      www.OpenFOAM.org                      |
|    \\/     M anipulation  |                                                 |
\*---------------------------------------------------------------------------*/
FoamFile
{
    version     2.0;
    format      ascii;
    class       volScalarField;
    location    "41";
    object      p;
}
// * * * * * * * * * * * * * * * * * * * * * * * * * * * * * * * * * * * * * //

dimensions      [0 2 -2 0 0 0 0];

internalField   nonuniform List<scalar> 
918
(
0.582245
1.23112
0.00516406
0.581484
-0.00942986
1.19876
-0.474274
0.738775
0.562119
-0.0658462
0.0005384
0.557828
1.05941
0.825053
-1.0929
0.0110583
0.687898
-0.356055
0.561496
-0.000985722
0.775189
0.568565
0.571589
0.561983
0.627384
0.807688
0.939863
0.0259067
-0.000125365
-0.0040683
-0.00962567
-0.0400296
-0.0295096
1.08214
1.13274
1.15531
0.530639
0.367382
-0.322834
-0.40252
-0.394859
-0.519234
0.733106
0.732327
-0.156306
0.741907
0.749126
0.549669
0.561458
0.5624
0.563481
0.562436
0.56386
0.441309
-0.0717019
-0.103604
-0.0468277
-0.036256
0.0877488
0.00222881
-0.00109944
0.00145336
-0.00331874
0.480679
0.553456
0.550717
0.5631
0.572862
1.16987
1.14091
1.16651
1.08343
1.09832
1.03711
1.00906
0.846067
0.867248
0.810293
0.798815
-1.51333
-2.47206
-0.50755
-0.254945
-0.00858963
0.0153146
0.0245127
0.679021
0.677789
0.688672
0.701772
1.11956
-0.331583
-0.483315
0.561308
0.560287
0.568397
0.568756
0.56592
0.564002
-6.09069e-05
4.31216e-05
-0.00639701
-0.000699973
-0.0083299
0.763612
0.761987
0.563661
0.560255
0.577654
0.597279
0.591381
0.310797
0.62989
0.64039
0.627668
0.797139
0.791339
0.799996
0.914352
0.877404
0.97747
1.00076
0.0151591
0.00430118
0.000445621
-0.0106768
-0.00404628
0.526572
0.51853
0.545552
0.534038
0.536471
0.284209
0.151171
0.460522
0.488627
-0.236715
-0.307549
-0.395181
-0.424891
-0.527905
0.650366
0.722
0.720991
-0.166314
-0.102034
-0.229634
-0.0197874
-0.0846218
0.539994
0.546983
0.54134
0.557022
0.551738
0.553335
0.565767
0.562836
0.564356
0.5018
0.604534
0.372308
0.332173
-0.212998
-0.116662
-0.211669
-0.0219199
-0.0168173
0.104138
0.130622
0.0771695
0.071898
-0.0117264
-0.00353463
-0.00581082
-0.00306965
-0.00329676
0.475243
0.465171
0.494135
0.501334
0.544005
0.544949
0.548099
0.546642
0.959445
0.981842
0.990309
0.964067
-3.48784
-6.5423
0.0713117
0.211679
0.00047005
-0.00469617
0.00405126
-9.1977e-05
0.000498625
-0.000534618
0.0316738
0.0344313
0.0309948
0.0428247
0.66578
0.667005
1.02509
1.01901
0.988171
0.931182
0.549519
0.551637
0.557126
0.552628
-0.00286744
-0.0013998
-0.00225391
0.749993
0.757776
0.755621
0.273912
0.187958
0.361384
0.389955
0.656558
0.645209
0.65451
0.688761
0.72404
1.00713
1.02503
1.02527
1.03335
1.07855
1.09155
1.05719
0.506843
0.516332
0.511903
0.548705
0.546418
0.547314
0.543067
0.544357
0.541776
-0.0187503
-0.379021
0.548654
0.564352
0.545077
0.551182
0.721839
0.789849
0.702392
0.712214
0.710951
0.0481916
-0.0131296
0.287406
0.254285
0.416123
0.451931
0.429027
0.930337
0.892337
0.942298
0.915399
0.875937
0.901532
-0.417916
-1.65751
-0.917727
0.569846
0.378707
0.467143
0.0517311
0.0274903
0.0346777
1.00691
1.09772
0.652471
0.839974
0.888388
0.763567
0.794589
0.850492
0.775078
0.809455
0.843738
0.825744
0.607725
0.562275
0.56633
0.852823
0.906364
0.166897
0.115723
0.0591045
0.14825
0.203992
0.177688
1.04762
0.960877
1.03374
0.559866
0.560477
0.0114698
0.0167657
0.564674
0.564867
0.00102872
0.00584627
0.453828
-0.788198
0.143393
0.552808
0.543103
0.560067
-0.0563318
0.403867
0.000912209
0.0929324
0.0302544
0.555426
0.491408
0.453072
0.0191772
-0.00585903
0.00163715
-0.192567
0.55738
0.555531
0.559581
0.560626
0.561263
0.00363163
0.00861319
0.00720111
0.00127237
0.00376756
0.00221163
0.524757
0.542139
-0.13695
0.559703
0.561911
0.56172
0.554593
0.560438
0.558373
0.00886114
-0.003518
-0.010306
0.261668
0.386011
0.696964
0.796808
0.669058
0.434858
0.182455
0.600254
0.664514
0.571399
0.723429
0.713996
0.73526
0.215356
0.0551056
0.2162
0.155611
0.551004
0.54941
0.541513
0.538468
0.555027
0.553215
0.557609
0.554575
0.557469
0.558914
-0.00824081
-0.034059
-0.0489831
-0.121816
0.359755
0.627192
0.294868
0.336089
0.177823
0.00489084
0.00255769
-8.43908e-06
-0.00289189
0.0463628
0.0144348
0.0872081
0.0862756
0.0531864
0.0263272
0.035435
0.018666
0.0208168
0.548855
0.547193
0.55348
0.562026
0.50078
0.504535
0.470203
0.490566
0.475715
0.418089
0.45258
0.427838
0.0115966
0.0241691
0.00404026
0.00223376
0.0160879
0.0133759
0.0100217
0.00595118
0.0124057
0.00389384
0.00229246
-0.00213437
-0.149632
-0.26088
1.02213
0.954567
0.150501
0.546362
0.552948
0.549559
0.554568
0.557632
0.558487
0.556251
0.552822
0.542736
0.544507
0.540992
0.541695
-0.0680811
-0.213068
-0.0443798
-0.107245
0.158462
0.647229
0.397366
0.326103
0.326602
0.553036
0.972402
0.737634
0.722844
0.759631
-0.327517
0.045776
-0.266574
0.324496
0.149463
0.696314
0.747625
0.771517
0.716452
0.669088
-0.220116
0.569929
-0.027028
0.0188375
0.221127
0.110056
0.739051
0.698111
0.703656
0.723376
0.743687
0.701645
0.684776
0.681725
0.719077
0.723817
0.527243
0.295199
0.240321
0.207412
0.681891
0.565543
0.618177
0.530403
0.545888
0.548661
0.547201
0.529525
0.536895
0.532504
0.538571
0.541763
0.550999
0.551558
0.546609
0.548866
-0.00778417
-0.0134569
0.0154101
-0.105126
-0.0943444
-0.172311
-0.0218395
0.101609
0.0696346
0.266683
0.347033
0.0757405
-0.0213274
0.00538852
0.0284327
0.201916
0.259559
0.116055
0.196305
0.193261
0.173818
0.289484
0.285864
0.0177254
0.0112592
0.0114893
0.00899522
0.0609999
0.129673
0.14714
0.0343944
0.0305845
0.000286627
-0.000745787
0.0151257
0.0128623
0.0155504
0.0541183
-0.0559532
-0.000882469
0.0207308
0.0375135
0.0338942
0.0215743
0.541711
0.54375
0.543507
0.551467
0.568578
0.584372
0.541942
0.523083
0.51377
0.516546
0.490108
0.500654
0.496041
0.509132
0.529653
0.538763
0.536842
0.539488
0.522464
0.524095
0.511055
0.514469
0.491497
0.472672
0.460687
-0.00481811
0.0350503
0.0335098
-0.0127371
0.0186724
0.000849691
0.0288864
0.0438199
0.0298878
0.0223307
0.0189842
0.0116765
0.0162633
-0.0488085
0.0386246
-0.154756
-0.190483
-0.265648
0.924394
1.03032
0.847031
0.61467
0.627808
0.873534
0.956075
0.585349
0.757903
0.786918
0.623397
0.868384
0.551428
0.55099
0.548533
0.548071
0.549384
0.0222748
0.128936
0.128089
0.192616
0.303799
0.425768
0.332735
0.207276
0.339014
0.32948
0.64092
0.656875
0.611117
0.632808
0.634075
0.458968
0.535185
0.589173
0.546201
0.59122
0.610581
0.5734
0.600427
0.552117
0.506119
0.506265
0.454346
0.468484
0.447356
0.430452
0.541105
0.518187
0.528571
0.519158
0.539888
0.562551
0.557559
0.591081
0.602087
0.523892
0.482103
0.489405
0.520974
0.482326
0.496883
0.511597
0.251592
0.181541
0.218953
-0.0697919
0.0147119
-0.0612385
-0.0930653
0.0242272
0.322684
-0.416427
-0.47799
-1.03387
0.513533
1.03965
0.693937
0.63759
0.740903
0.717554
0.719958
0.749397
0.751743
0.672918
0.689371
0.696756
0.650085
0.672895
0.702221
0.697769
0.55514
0.40977
0.401977
0.363623
0.239427
0.278369
0.480988
0.395539
0.321709
0.336018
0.4959
0.389081
0.454323
0.482421
0.40276
0.375688
0.572443
0.642898
0.631215
0.603928
0.525709
0.538476
0.567235
0.60145
0.626686
0.663523
0.538133
0.544015
0.545325
0.542904
0.539937
0.542841
0.542999
0.545619
0.546399
0.549494
0.548447
0.00145721
0.0114529
-0.00120434
-0.00897913
0.0171534
0.0152049
0.0654043
0.0498258
0.0300499
0.0370683
0.0114041
0.0113941
0.0143357
0.0218991
0.14235
0.143501
0.123866
0.0918538
0.270853
0.408613
0.472335
0.35128
0.260134
0.285495
0.29878
0.0219595
0.050516
0.0395442
0.0765693
0.0734395
0.00927953
0.00204463
0.00517727
0.00901332
0.0246519
0.00231981
0.000657833
0.00749249
0.00458839
0.00192964
-0.00187824
0.525648
0.519175
0.519561
0.514081
0.513204
0.526233
0.530572
0.532905
0.538247
0.540069
0.530775
0.536008
0.539554
0.0251452
-0.00055873
-0.0112651
0.0112232
0.00649534
0.0118274
0.00866813
0.150257
0.0824871
0.0802871
0.0365782
-0.0949194
-0.0375071
0.518173
0.517502
0.521407
0.744965
0.598104
0.522236
0.624213
0.723568
0.297896
0.490489
0.32606
0.910022
0.799765
0.945602
0.554761
0.259201
0.419961
0.477559
0.266966
0.344672
0.346343
0.246769
0.274919
0.298847
0.403078
0.292929
0.275274
0.0253751
0.219894
0.338025
0.324276
0.450283
0.517539
0.274498
0.202459
0.171447
0.632632
0.651368
0.673272
0.641716
0.666979
0.600706
0.588644
0.607395
0.616253
0.612303
-0.759121
-0.468208
-1.38226
-0.672634
-0.232503
0.545088
0.510245
0.789302
0.673337
0.730519
0.716119
0.684787
0.648879
0.662397
0.69354
0.392941
0.499032
0.476001
0.478531
0.370908
0.314646
0.612615
0.604532
0.64413
0.667222
0.634
0.668663
0.535889
0.535625
0.53499
0.531629
0.530244
0.532301
0.0989313
0.0656434
0.11082
0.090374
0.0658469
0.0489698
0.0329828
0.0239796
0.0121957
0.0104547
0.029203
0.0332806
0.181973
0.121469
0.0533623
0.0799935
0.0193133
-0.0493978
-0.068604
0.0358333
0.127776
0.129181
0.435515
0.674112
0.494343
0.664278
0.53095
0.562107
0.512495
0.509193
0.535679
0.419414
0.493699
0.309156
-0.226595
-0.106913
0.771581
0.834116
0.609334
0.481464
0.190525
0.318803
0.582274
0.507171
0.54994
0.621647
0.61187
0.0354346
0.0632054
0.398163
0.599496
0.264662
0.198203
0.213761
0.377216
0.330365
)
;

boundaryField
{
    wall-4
    {
        type            zeroGradient;
    }
    velocity-inlet-5
    {
        type            zeroGradient;
    }
    velocity-inlet-6
    {
        type            zeroGradient;
    }
    pressure-outlet-7
    {
        type            fixedValue;
        value           uniform 0;
    }
    wall-8
    {
        type            zeroGradient;
    }
    frontAndBackPlanes
    {
        type            empty;
    }
}


// ************************************************************************* //
