/*--------------------------------*- C++ -*----------------------------------*\
| =========                 |                                                 |
| \\      /  F ield         | OpenFOAM: The Open Source CFD Toolbox           |
|  \\    /   O peration     | Version:  4.0                                   |
|   \\  /    A nd           | Web:      www.OpenFOAM.org                      |
|    \\/     M anipulation  |                                                 |
\*---------------------------------------------------------------------------*/
FoamFile
{
    version     2.0;
    format      ascii;
    class       surfaceScalarField;
    location    "41";
    object      phi;
}
// * * * * * * * * * * * * * * * * * * * * * * * * * * * * * * * * * * * * * //

dimensions      [0 3 -1 0 0 0 0];

internalField   nonuniform List<scalar> 
1300
(
3.75095
5.62643
-3.0644
3.75095
-7.62044
5.62643
-4.42528
4.42528
-0.831883
0.831883
1.87646
1.87449
-2.99361
2.99361
-2.45917
2.45917
-2.54732
2.54732
-5.24647
5.24647
-5.06887
5.06887
4.65989
-4.65989
-6.17195
6.17195
-1.17589
1.17589
-3.87701
3.87701
3.16875
-3.16875
-2.32071
2.32071
-0.21544
0.21544
-0.553133
4.30409
3.19782
3.19782
-2.02356
2.02356
-4.86528
4.86528
6.21758
-6.21758
4.9888
-4.9888
-1.92439
-2.24211
1.81237
-11.5826
-5.80807
-5.80807
-8.44021
8.44021
-2.81378
2.81265
2.94465
-2.94465
-1.86447
1.86447
-4.33883
-0.0864482
-4.33883
4.43519
-0.00991172
4.43519
-0.920382
0.0884989
-0.920382
3.91157
-3.91157
0.710142
0.121741
0.710142
3.06513
-3.06513
-1.87716
3.75363
1.87379
-1.87178
6.17587
-1.87917
3.75366
-5.96067
5.96067
-3.19288
0.199268
-3.19288
2.81479
0.178825
2.81479
-6.78573
6.78573
-2.52884
0.0696693
-2.52884
2.3848
0.0743738
2.3848
2.8691
-2.8691
-2.65139
0.104071
-2.65139
2.43248
0.114843
2.43248
0.353677
5.27275
-5.98011
8.79276
-5.27275
0.0262872
5.20828
0.0381836
5.20828
-5.10592
0.0370473
-5.10592
5.01174
0.0571332
5.01174
4.73545
-0.0755564
4.73545
-4.78536
0.125467
-4.78536
-3.52261
-4.07484
-6.33699
0.16504
-6.33699
-1.18076
0.00487167
-1.18076
1.13301
0.0428728
1.13301
-3.63509
3.63509
-4.20981
0.332802
-4.20981
3.1226
0.0461509
3.1226
1.86903
1.88193
5.61998
-5.61998
2.45122
-2.30631
-0.0144051
-2.30631
-2.29174
-2.69706
2.29174
0.028969
-0.458869
0.243429
-0.458869
3.16011
0.0377124
3.16011
2.27777
0.154707
-2.27777
0.254212
3.23837
-3.23837
1.35342
0.670145
1.35342
-5.56658
5.56658
4.95436
0.0573751
-4.95436
0.08908
6.15675
0.0608256
6.15675
-6.19984
-0.0177413
-6.19984
2.7255
-4.9676
-2.49345
5.98532
0.186629
-5.98532
0.177252
2.91512
0.029531
2.91512
-2.91879
2.91879
-2.98406
0.0394066
-2.98406
-2.2479
0.383427
-2.2479
1.57886
0.285613
1.57886
-4.20733
-0.131498
-4.20733
-4.3542
0.144389
4.3542
0.0809869
1.17563
-1.17563
-1.02909
0.108707
-1.02909
-4.05196
-0.155372
4.05196
-0.140385
-3.77751
-0.134063
-3.77751
-3.02403
0.0399728
3.02403
0.0411009
3.11318
0.0469316
-3.11318
0.0480476
-1.87089
3.75282
-1.88006
3.75385
-5.58477
-0.375896
-5.58477
6.27196
-0.311288
6.27196
3.55199
0.325023
-3.55199
0.359112
2.68936
0.125429
2.68936
-6.75352
-0.0322078
-6.75352
6.76101
0.0247164
6.76101
2.60671
0.0826488
-2.60671
0.0778672
2.33159
0.0532119
2.33159
2.88786
-0.0187569
2.88786
-2.86781
-0.00128679
-2.86781
2.79717
-2.79717
2.72821
0.0689579
-2.72821
0.0768179
-11.1328
11.1151
-0.0352331
-11.0976
5.17305
5.17305
4.15114
0.584307
4.15114
-4.99996
0.214604
-4.99996
2.95652
-5.44996
3.10584
-6.62844
4.69278
-16.2754
4.32028
-8.39511
6.61871
-6.61871
6.49552
0.123198
-6.49552
0.158523
-1.23112
0.0503648
-1.23112
-3.03572
-0.599363
-3.03572
4.28255
-0.647463
4.28255
-3.02773
3.02773
-3.07669
0.0489623
3.07669
0.0459133
2.30405
0.0275398
-2.30405
-0.00226008
0.587545
0.122597
-0.587545
0.128675
3.42516
-0.186783
3.42516
-3.04996
-0.188413
-3.04996
-1.28601
0.0548882
1.28601
0.067405
-5.81597
0.24939
-5.81597
-11.1908
0.0932109
-11.1526
-6.10663
-6.10663
2.33359
11.1263
-2.88905
0.0212388
2.88905
0.0260672
2.97427
0.0534565
-2.97427
0.0554866
-2.85997
0.0627966
2.85997
0.0588192
-2.63198
0.384076
-2.63198
-1.16628
1.16628
-1.34214
0.175864
1.34214
0.23672
1.41117
-0.235543
1.41117
1.09273
0.0402884
-1.09273
0.0636363
-3.68143
-0.0960775
-3.68143
6.50599
-0.234033
6.50599
-2.94299
-0.106967
2.94299
-0.0551376
-0.033395
11.1485
-5.13965
0.033738
5.13965
-11.2093
11.2431
-3.25889
0.626912
3.25889
0.892252
5.29035
0.276225
-5.29035
0.290392
6.7037
0.057313
-6.7037
0.0849863
-2.55463
-0.481099
-2.55463
-5.01968
-0.565092
5.01968
-0.737131
-11.4735
-0.204551
11.678
-11.4163
6.02052
0.136232
-6.02052
11.3793
-1.09955
-0.0760865
1.09955
0.0667321
1.71258
-0.301408
1.71258
3.59563
-0.170477
-3.59563
-0.0857993
-6.66235
-0.0911758
6.66235
-0.156356
-2.11222
-0.442402
2.11222
-0.399641
-4.2669
4.30461
1.90897
-2.56015
-2.40745
-5.25721
1.85155
1.90127
4.30277
-10.1884
-6.08699
-10.0111
7.25913
-6.96874
-9.26895
9.19339
7.66747
-7.80153
-5.78704
5.83295
6.48276
-6.44165
1.87874
1.87489
7.87533
-7.67606
-15.6346
15.2587
7.43595
-7.36628
15.8171
-15.8493
-17.9123
17.9696
-5.71173
5.8158
-6.72858
6.72729
-6.94747
6.89233
-3.01498
-3.61346
13.1838
-13.0188
8.36588
-8.38029
-8.55222
8.88502
3.38197
0.922636
3.4289
-1.88231
3.76106
-1.87135
3.78032
2.67725
-5.69223
2.77271
-5.18016
4.12521
4.24067
-4.15418
-1.10303
-5.91978
5.94932
-5.8213
5.88012
8.99827
-9.08472
-1.88521
3.76009
-1.86864
3.76992
-3.42648
-2.36056
3.38033
0.922442
8.10735
5.07644
-8.29398
-1.71714
-7.96977
7.79929
-8.18206
7.99364
-0.435272
5.81662
-5.38135
4.43001
-1.55723
7.37385
5.7019
5.91651
5.86325
-5.58703
1.10549
-6.48683
-6.39775
-2.48335
2.59206
2.42234
-2.3006
5.98732
1.68015
5.84693
-5.66718
-2.13435
-5.76326
3.82177
2.01118
3.87073
4.07693
2.40582
4.1169
3.03065
-3.03559
0.00494706
-3.0563
6.08694
0.724498
-5.41686
-4.49441
4.92261
2.95272
5.10144
-5.47912
-2.19694
-5.12001
-9.53154
-6.10302
-10.0966
10.1064
5.15228
9.79509
-11.992
11.8356
4.73094
2.70501
4.80531
-4.87703
-2.48924
-4.79917
11.63
-2.60435
-9.02565
-10.3564
-7.55588
10.3317
5.48545
10.9984
6.97116
11.0834
4.43957
7.19043
-9.92502
2.36914
-3.8662
-1.84552
-3.78939
3.68496
2.13084
3.7998
-4.21359
-2.51499
-4.19235
-4.28792
-2.65955
4.30667
2.42062
-4.403
-3.77905
4.50997
2.38236
4.05629
-10.1433
4.33882
-7.95228
-9.24974
-3.76902
-9.09121
3.50223
2.58364
-6.08587
-2.19001
8.4732
-4.23253
7.37017
-5.08994
-3.29034
-5.0922
-6.80606
-1.74615
-6.66167
-8.84248
8.36138
-9.16901
8.52154
12.5883
-5.67854
-6.90976
-3.96849
-2.47317
3.92044
-0.491536
-3.71071
3.71566
0.0503413
3.83066
4.7533
4.26176
-3.88771
-1.93359
-3.83223
3.83155
2.04857
3.89435
6.77926
2.21901
6.76935
-6.49156
-2.59316
-6.62305
9.04173
-8.6583
2.90695
-2.85206
5.35192
2.64172
-5.16514
-2.80463
6.19362
-3.18373
-3.00989
-12.212
10.5748
1.6372
-4.83813
-0.408117
-0.192677
-5.49001
-3.77894
5.36454
0.551967
11.1267
7.3478
-5.5113
5.76069
6.16672
6.22409
-0.173664
5.77694
-5.15003
5.33253
-2.46164
-2.87089
5.33999
-5.49537
-1.28306
-5.34509
4.06203
0.351566
1.66017
-1.41674
-1.93275
-0.550599
-1.86911
1.45283
0.969512
1.57543
0.942391
1.64967
-2.95221
0.562439
2.38977
-2.00982
-1.73816
-3.71106
-1.12694
4.838
5.70494
2.09435
-5.61914
-0.144113
2.61943
-2.57656
-0.729719
-2.98134
2.19009
-2.91981
-3.70735
-1.90629
5.61365
-3.37118
-0.461042
3.31773
0.553007
-3.82562
-2.09416
3.78622
0.330686
-3.12563
6.18827
-3.06264
-5.05922
2.52873
3.55821
4.53991
-4.78905
2.44633
2.34272
-1.23084
4.21409
0.887342
4.33952
-6.77504
4.5781
5.7463
3.13872
-6.07132
0.951309
-5.82373
8.46085
-7.28018
-1.18068
4.09755
4.36331
7.12711
5.46119
-5.726
12.8531
-1.18122
-6.09896
7.00495
-3.86623
4.76669
-8.63293
-10.2279
4.12892
-9.17742
10.9546
-1.77718
-3.63795
-8.35405
12.8154
-1.20701
-11.6084
8.58809
-4.13879
-4.24659
8.38538
-6.74314
6.73583
-1.94176
-4.79407
-10.1329
-5.71641
10.2241
1.61156
-9.84473
12.2139
-2.6543
4.06656
0.738755
4.11977
3.22147
-5.39738
2.17591
3.52167
-5.46343
2.05618
-7.45355
-6.77755
12.1526
-5.37507
-10.5466
-9.56813
-0.97844
2.534
9.67987
-9.50516
7.45274
2.05242
3.30795
0.586399
-3.37691
-0.412479
0.244331
4.5342
-4.77853
4.04413
4.19884
3.33785
1.19635
3.84152
2.1078
-3.86759
-0.324767
-4.15318
1.49363
-1.73256
-3.68019
5.17382
-4.06876
0.388564
-2.73948
-3.50732
6.2468
-4.585
3.03691
3.15136
5.08548
-4.91313
1.40581
-2.40001
-2.51312
2.66294
-4.3955
1.97682
3.197
4.35918
0.580128
5.93729
6.21532
-8.52094
0.568652
11.2918
-9.57462
2.47685
8.60655
-9.92959
0.361464
-8.72975
0.987189
-5.21971
-5.09868
5.09231
-6.83846
-3.54062
6.15418
0.615164
-6.23517
-0.426502
-6.02291
-2.81956
-6.46532
-3.04519
-6.12382
-8.77119
-1.6382
-7.13299
6.72318
-6.67045
-3.42618
7.40758
1.11396
-7.39389
7.3178
-7.47353
7.17212
0.0950903
3.62057
4.35685
1.88369
-2.38973
4.27342
-5.07896
7.29797
-8.55913
3.48017
4.02489
-6.61805
-4.53424
5.03242
4.00931
5.31804
8.91432
-10.4142
1.49985
-10.7318
12.0368
-1.30495
-16.4922
5.76033
-7.57785
2.58148
0.325468
2.63185
0.600149
2.49266
-3.09281
-2.25191
-2.18451
-2.37534
-3.44483
5.82016
1.13439
-3.46887
2.33448
-3.5411
4.67549
-0.120586
-3.34829
5.30618
-2.81352
5.63164
-3.66168
1.96996
3.3801
5.72362
-2.34352
4.37766
-1.73594
1.8718
-4.21532
-1.57303
-2.96473
5.09557
-3.28207
3.67063
-0.317041
3.98767
-4.08142
0.897689
-0.743567
3.45527
3.70948
4.28729
-3.09094
2.93792
-4.67386
-1.27739
-4.09374
-0.896736
-0.287171
-3.75804
4.04521
6.03521
-6.32238
-5.22812
9.54404
-4.31592
7.72541
-5.3871
-2.33832
-4.24753
-4.41077
3.86345
1.91348
9.6389
0.237233
-5.62433
-4.91279
-4.02054
3.19241
2.14011
-1.88317
3.52037
2.07585
-0.415678
0.528782
1.04665
1.85477
-1.32599
0.241421
1.61335
-1.17532
1.90702
0.712408
-1.94731
0.078198
-1.32373
3.51382
1.06604
-2.03556
0.709563
1.03924
-3.50088
4.94518
-2.56487
-2.38031
5.98442
1.13954
-3.70441
4.20555
-3.85398
2.3386
-3.46554
-1.36581
-5.21979
-3.53964
-2.5673
4.90178
-3.25287
5.34722
1.19442
-5.2031
6.39753
-3.607
1.7007
-3.09862
3.81102
-1.06849
-2.03012
2.86187
2.75178
-2.97156
-0.00977716
-0.109694
2.35978
-2.46947
-0.560031
-2.56985
-4.57283
4.90351
-2.10642
4.55274
2.167
-1.91538
6.46812
1.81049
-3.72587
-3.24873
-3.70978
-1.38314
3.15677
-0.58397
-4.2152
-5.37804
4.13255
0.206973
-6.88789
7.69098
-0.803092
-3.93517
-0.642929
4.74048
-5.94002
0.476591
-3.88384
3.80714
4.69448
4.90145
-11.3915
-0.216866
-6.23921
1.14691
-7.38612
5.51021
-3.59685
7.72577
-10.3702
6.94404
-9.25626
6.5451
-0.841019
6.25076
-4.07486
2.77489
-8.4913
-6.87975
5.39015
-2.68514
6.1289
-3.04594
9.17485
-5.70024
5.14491
4.02994
-0.968784
-4.12342
-5.1688
4.20002
-0.0238913
4.09588
4.97398
-2.86618
4.64922
2.26128
-4.66129
-2.13422
-6.50001
1.83872
-3.34865
-1.91705
3.75577
3.16843
3.75483
1.24266
-3.34235
7.18978
-8.16822
-1.81471
-3.28396
5.1555
-0.955479
3.35456
-6.63852
-1.86515
4.86475
-0.8507
-4.01405
0.813791
-4.35441
1.66433
-6.01874
5.17413
-5.60063
2.19138
-9.76922
-5.20251
-5.13578
-2.23316
-5.24037
-7.60221
5.36906
-1.84188
5.47592
-8.55941
7.70871
-3.47738
8.84644
-5.4305
-1.03481
5.83014
1.34198
10.1884
0.179287
-4.71353
-1.90728
3.95634
-2.04906
1.28513
-3.57875
0.377585
2.48716
3.49726
-6.54919
-0.0688611
-4.78239
-3.92848
7.93779
5.61556
11.6508
1.23659
9.11811
-1.18032
10.3547
4.13772
4.37444
-3.02006
4.51991
1.02516
4.50533
-0.865913
2.83587
1.76594
1.77081
0.805752
2.32185
1.38763
3.21954
0.126732
-2.05778
4.62983
-8.65037
-0.994503
-8.06606
1.12733
5.82373
-4.6964
3.08641
-0.946298
1.03735
0.0739846
-1.58096
1.50697
-2.79691
-1.99664
-0.383284
-1.6467
2.35627
1.86712
-1.97298
-0.823924
0.374388
-3.91403
3.09115
-3.10093
-0.349145
6.04838
-2.77577
0.306302
-1.07507
-2.26355
-2.81415
2.73595
6.17553
0.292594
3.11288
5.19611
3.10195
0.235764
3.8796
-5.65678
-3.57395
-5.87365
-0.363437
4.37704
1.72948
7.95039
5.75942
4.80394
-1.83459
-10.0028
6.52044
-2.00053
5.21549
-1.20144
-4.8173
4.99597
2.302
-5.61114
0.010506
-4.80679
-6.80732
-0.55807
8.26678
-9.63034
8.59553
5.77597
1.35702
-4.40937
-0.726404
4.23351
0.140929
10.4956
-1.17951
-6.73245
7.91196
-4.64422
3.64971
0.773405
2.74697
2.28038
1.33408
-5.39837
-10.0948
-1.96363
-1.53725
-4.34394
0.494059
-2.36118
6.27301
-2.6233
3.93469
5.28866
6.32602
-2.14543
-4.17695
6.46134
-2.52665
3.79937
)
;

boundaryField
{
    wall-4
    {
        type            calculated;
        value           uniform 0;
    }
    velocity-inlet-5
    {
        type            calculated;
        value           uniform -3.75095;
    }
    velocity-inlet-6
    {
        type            calculated;
        value           uniform -5.62643;
    }
    pressure-outlet-7
    {
        type            calculated;
        value           nonuniform List<scalar> 8(3.0644 7.62044 4.1665 9.77021 7.59744 5.21894 6.06235 9.01305);
    }
    wall-8
    {
        type            calculated;
        value           uniform 0;
    }
    frontAndBackPlanes
    {
        type            empty;
        value           nonuniform 0();
    }
}


// ************************************************************************* //
