/*--------------------------------*- C++ -*----------------------------------*\
| =========                 |                                                 |
| \\      /  F ield         | OpenFOAM: The Open Source CFD Toolbox           |
|  \\    /   O peration     | Version:  4.0                                   |
|   \\  /    A nd           | Web:      www.OpenFOAM.org                      |
|    \\/     M anipulation  |                                                 |
\*---------------------------------------------------------------------------*/
FoamFile
{
    version     2.0;
    format      ascii;
    class       volVectorField;
    location    "41";
    object      U;
}
// * * * * * * * * * * * * * * * * * * * * * * * * * * * * * * * * * * * * * //

dimensions      [0 1 -1 0 0 0 0];

internalField   nonuniform List<vector> 
918
(
(0.98509 -0.000550936 0)
(0.00479146 2.96626 0)
(0.0060222 0.808678 0)
(0.979828 0.00240842 0)
(-0.0139197 2.02444 1.46859e-20)
(-0.00705001 2.94891 -1.11382e-18)
(0.822877 1.17483 1.7182e-19)
(0.269127 0.134253 -6.58074e-21)
(0.999905 -0.000301352 0)
(0.0508658 0.843774 0)
(0.0196559 0.660702 0)
(0.731498 -0.0136031 0)
(0.0115032 2.93019 0)
(0.00270688 2.79511 0)
(-0.0206223 3.1533 3.32632e-19)
(-0.0183766 1.85907 -4.95343e-21)
(0.337362 0.0381632 4.30167e-19)
(0.198413 1.19787 1.18915e-19)
(0.961977 0.00388378 0)
(0.00556743 0.614636 0)
(0.0593581 0.168212 -3.13135e-19)
(1.00217 -0.00520117 0)
(1.00077 -0.0101516 0)
(0.975977 -0.00653115 0)
(0.580966 -0.0261948 0)
(0.0185287 2.638 0)
(-0.0149741 2.91019 3.92844e-19)
(0.00582137 0.886554 0)
(0.0109669 1.11418 0)
(0.000653999 0.864167 0)
(-0.0121203 2.61252 0)
(0.00318397 2.0862 -1.14326e-20)
(-0.010601 1.84133 0)
(-0.0204517 2.98751 -4.01523e-23)
(-0.0169831 3.00539 8.84769e-19)
(0.0020105 3.00015 0)
(0.870684 -0.00876658 0)
(0.437617 0.973091 8.35346e-20)
(0.794534 1.19361 -1.77856e-19)
(0.940052 1.02908 2.02164e-19)
(0.665893 1.29088 -3.92896e-20)
(0.670435 1.27604 2.3024e-19)
(0.310804 0.211064 6.41644e-21)
(0.281731 0.106574 0)
(1.1246 0.56861 0)
(0.280252 0.200599 2.93288e-20)
(0.238003 0.135366 -3.04526e-20)
(0.919569 -0.00726559 0)
(1.00028 0.000155664 0)
(0.999916 0.000341988 0)
(1.00351 -0.00767476 0)
(1.00096 -0.000945669 0)
(1.00019 2.32835e-05 0)
(0.0630098 1.80023 -3.42176e-19)
(0.0221054 1.02415 0)
(0.0781689 0.903553 0)
(0.0101848 0.973405 0)
(0.0294795 0.785861 0)
(0.0204142 1.99089 0)
(0.0144907 0.862899 0)
(0.0123003 0.686484 0)
(0.0197725 0.841359 0)
(0.00817257 0.634695 0)
(0.838289 -0.0144294 0)
(0.847743 0.0282117 0)
(0.766164 -0.00319593 0)
(0.819557 0.0374373 0)
(0.69981 -0.0136552 0)
(0.0153243 3.00067 4.0497e-19)
(0.0116915 3.00839 0)
(0.00651152 3.00253 0)
(0.0141336 2.99721 4.55339e-24)
(0.00835723 2.95853 -6.12131e-19)
(0.0152055 2.98191 0)
(0.0112541 2.90364 0)
(0.0250636 2.93056 9.03452e-25)
(0.00514783 2.82517 0)
(0.0312767 2.9162 0)
(-0.00449515 2.74489 0)
(0.303343 3.54559 0)
(-0.146082 3.62246 0)
(0.134743 3.24588 -3.07034e-19)
(-0.0101339 2.9858 0)
(-0.00961395 2.0313 0)
(-0.00726676 2.14746 4.88457e-21)
(-0.00254977 1.87893 -1.01432e-20)
(0.43962 0.137034 -1.48808e-19)
(0.331708 0.0274412 -1.43535e-19)
(0.423573 0.156241 -4.4819e-19)
(0.321352 0.0567128 -2.9621e-19)
(0.190087 0.950989 0)
(0.22798 1.33485 -1.40172e-19)
(0.371988 1.28875 2.38051e-19)
(0.98735 0.00823314 0)
(0.941283 0.00545236 0)
(1.00031 0.000430064 0)
(1.00326 0.00949496 0)
(1.00287 0.00785158 -1.15488e-18)
(0.991774 0.00988942 8.81838e-19)
(-0.00746189 0.809065 0)
(0.00857649 0.613085 0)
(-0.0104712 0.924569 0)
(0.00297191 0.806628 0)
(-0.0114072 0.599446 0)
(0.101706 0.174598 9.70446e-20)
(0.156749 0.153542 0)
(0.993361 -0.00825166 0)
(0.95448 -0.00615321 0)
(0.766757 0.0446041 0)
(0.703521 0.0562551 0)
(0.661925 -0.023352 0)
(0.962078 -0.00534692 0)
(0.615605 0.0802543 0)
(0.441577 0.00230991 6.34795e-19)
(-0.0368494 2.8635 2.93445e-19)
(0.0418151 2.90909 0)
(0.0546384 2.88516 0)
(-0.00443096 2.6989 0)
(-0.0135493 2.98511 3.71514e-19)
(-0.018109 2.89512 0)
(-0.0158663 2.988 -1.15466e-18)
(-0.0131526 2.92537 3.96561e-19)
(0.0366888 1.3408 0)
(0.0560868 1.39128 0)
(-0.00243296 2.11173 5.82518e-23)
(-0.00126594 2.06393 0)
(-0.0239189 1.84465 0)
(0.938049 -0.0076543 0)
(0.856958 -0.00814975 0)
(0.862667 0.00580396 0)
(0.949159 -0.00791993 0)
(0.883645 -0.00733225 0)
(0.546609 1.16754 -1.06313e-19)
(0.596226 1.20671 0)
(0.405119 0.925816 1.53065e-20)
(0.344574 0.779809 0)
(0.90351 1.06664 -5.40679e-20)
(1.00988 0.871502 1.08788e-19)
(0.362354 1.37595 0)
(0.523105 1.35453 0)
(0.528061 1.3062 0)
(0.122156 0.208823 -1.28347e-19)
(0.346774 0.204715 0)
(0.310247 0.0944738 8.3769e-20)
(0.986015 0.926053 0)
(1.05587 0.779928 0)
(1.07693 0.720563 -8.24219e-20)
(1.10518 0.624096 0)
(1.15193 0.407935 2.35357e-20)
(0.957632 -0.00854023 0)
(0.962347 -0.0102629 0)
(0.901958 -0.00737221 0)
(0.984345 -0.00918808 0)
(0.974827 -0.00934417 0)
(0.937436 -0.00598324 0)
(1.00017 0.00214895 0)
(1.00086 0.00142587 0)
(0.999869 0.000909935 0)
(0.0281821 2.06308 1.87609e-19)
(0.0985433 1.75152 0)
(0.0134342 2.1727 2.95688e-19)
(0.0449482 1.85592 -2.49701e-19)
(0.0993545 1.21399 -9.69653e-20)
(0.0436603 1.09614 0)
(0.117791 1.04809 0)
(0.0045672 0.928098 0)
(0.0132997 0.740423 0)
(-0.00576193 2.22752 -5.48926e-22)
(0.0238104 1.99442 0)
(-0.00731232 2.22898 -2.59932e-20)
(0.0237617 1.99172 4.74497e-20)
(0.00496174 0.905633 0)
(0.014651 0.881446 0)
(0.010066 0.710152 0)
(0.00219901 0.826051 0)
(0.00688853 0.61975 0)
(0.935384 0.00940846 0)
(0.844223 -0.0155122 0)
(0.925622 -0.000943382 0)
(0.839427 -0.0118855 0)
(0.811085 0.000720133 0)
(0.901169 0.0197703 0)
(0.877845 0.0237871 0)
(0.787922 -0.000753055 0)
(0.00402277 3.06425 -3.58332e-21)
(0.0170008 3.05769 0)
(0.0153452 2.96898 0)
(0.00889119 2.87614 0)
(0.962085 3.98184 0)
(1.30687 3.24527 4.48885e-19)
(0.0687872 3.07673 0)
(-0.023947 2.90776 0)
(0.0378512 1.43836 0)
(-0.00813293 1.75175 0)
(0.029187 1.61239 0)
(-0.0272668 2.5661 1.89706e-22)
(-0.0132143 2.25535 0)
(-0.0213767 2.40393 0)
(0.0175192 1.92129 -1.22062e-21)
(-0.00779564 2.21135 1.15882e-20)
(-0.0169588 2.17855 1.03048e-20)
(0.00843219 1.89536 0)
(0.468659 0.119143 2.23847e-19)
(0.357536 0.011755 -2.19816e-19)
(0.271854 1.57266 0)
(0.247866 0.73778 -1.28592e-19)
(0.177507 1.66441 -4.2542e-19)
(0.203936 1.20561 4.26392e-19)
(0.901671 0.00587711 0)
(0.967336 0.0107406 0)
(0.974404 0.0106845 0)
(0.923179 0.00593626 0)
(-0.00221221 0.807576 0)
(-0.00990258 0.807745 0)
(-0.00504523 0.614112 0)
(0.242579 0.194425 2.70536e-19)
(0.204303 0.179441 -3.20589e-19)
(0.204267 0.145172 0)
(1.08473 0.0830795 1.24288e-20)
(1.06421 0.0371742 0)
(1.00223 0.0387645 0)
(0.898358 -0.00616076 0)
(0.499218 0.0976402 0)
(0.540268 0.0838676 -1.01598e-18)
(0.392681 0.00846849 3.80565e-19)
(0.00906129 2.98124 3.11486e-19)
(-0.0330561 2.867 1.93218e-20)
(0.00188292 3.0496 -7.57291e-21)
(0.0208562 3.04322 2.79519e-19)
(-0.0153748 2.99631 1.30086e-20)
(-0.0127872 2.94952 -5.24464e-23)
(-0.0175381 3.01148 -2.38972e-19)
(0.0142091 3.02298 1.71926e-19)
(0.0066957 3.03665 -2.79049e-19)
(0.93258 -0.0023391 0)
(0.938755 -0.00324793 0)
(0.843686 -0.00763144 0)
(0.956409 0.0115575 0)
(0.942728 0.0129073 0)
(0.881168 0.00545577 0)
(0.917724 0.0160399 0)
(0.926226 0.0147412 0)
(0.838198 0.00306041 0)
(0.760553 1.43365 2.08483e-20)
(0.803445 1.52535 0)
(0.217092 0.352476 3.1679e-20)
(0.249106 0.717652 2.52774e-19)
(0.291675 0.770934 -1.51558e-19)
(0.303472 0.557612 2.94586e-19)
(0.338657 0.816118 6.68368e-19)
(0.137465 0.238901 1.52394e-19)
(0.395377 0.179293 3.13817e-19)
(0.374407 0.195678 8.17199e-20)
(0.321893 0.0720936 1.56435e-19)
(1.14464 0.464481 6.9663e-21)
(1.15868 0.263598 4.79327e-21)
(0.00663283 2.22417 1.15419e-19)
(0.0430047 1.92469 0)
(0.964201 0.0301112 0)
(0.938169 0.0123144 0)
(0.864681 -0.0179614 0)
(0.0110962 3.0743 0)
(0.0204069 2.94383 5.09238e-19)
(0.0171949 2.95619 0)
(0.0067019 2.85064 -5.07557e-19)
(0.00561821 3.09072 1.2044e-19)
(0.00605012 3.08219 0)
(0.888683 1.82879 -6.76848e-20)
(1.27202 2.37894 1.1504e-19)
(0.868813 1.93262 -4.74017e-19)
(0.0204541 2.98161 -2.71735e-19)
(0.0362384 3.00266 0)
(-0.0323791 2.88074 0)
(-0.00703256 2.20526 -6.4001e-21)
(-0.00464736 2.22847 -2.13123e-20)
(0.0174828 1.95338 -4.21392e-21)
(0.278449 1.38881 4.19988e-19)
(0.201918 0.533954 -2.85894e-19)
(0.0529787 1.99037 3.21328e-19)
(0.153258 1.88322 -3.85534e-19)
(0.149844 1.48155 4.06539e-20)
(0.00102305 3.11861 -7.48955e-19)
(0.0162769 3.11757 8.42631e-19)
(-0.00960859 2.98099 3.41907e-19)
(-0.0037954 2.97787 -3.24528e-19)
(-0.0213415 2.88195 -3.48411e-19)
(0.00766825 3.09927 -8.97768e-19)
(0.00147876 3.10597 9.0117e-19)
(0.293006 0.728497 0)
(0.259792 0.727446 -5.22995e-19)
(0.111328 0.248211 2.32985e-19)
(0.354262 0.937529 4.54211e-19)
(0.184895 0.278516 -7.00755e-19)
(1.16205 0.172917 3.3357e-20)
(1.1612 0.312563 0)
(1.14755 0.124181 -1.06996e-20)
(-0.00229458 2.24132 -8.21381e-22)
(0.000855444 2.23437 0)
(0.0270832 1.9626 0)
(0.351736 1.29294 -1.50376e-19)
(0.377812 1.13282 -3.26939e-19)
(0.188713 0.370516 5.81279e-19)
(1.00554 -0.01118 0)
(1.00751 -0.00743875 2.14504e-19)
(0.035401 1.31533 0)
(0.00984561 1.27172 0)
(1.00198 0.00344676 7.97366e-22)
(1.0038 0.0100401 4.33937e-19)
(-0.0179598 2.54862 -2.49646e-22)
(-0.0263187 2.59039 0)
(0.0341486 3.17547 1.938e-19)
(0.386855 3.48016 0)
(1.16691 0.638867 -3.14364e-20)
(1.01323 0.0135759 -7.67255e-22)
(1.02123 -0.0107127 0)
(1.00175 0.000109527 2.63819e-23)
(0.102086 1.35078 0)
(0.15428 2.5715 0)
(0.0237571 1.28655 0)
(0.0042242 2.62906 2.75347e-20)
(-0.021779 2.58839 1.35966e-20)
(1.00199 0.0291302 9.75186e-22)
(1.06182 0.0032071 0)
(1.09297 0.0217931 0)
(-0.00829823 1.77796 0)
(-0.02845 2.5926 0)
(0.00330211 1.28025 0)
(0.309709 1.46485 -5.99824e-20)
(1.01124 -0.00989075 0)
(1.00939 -0.0153654 0)
(1.0024 0.000634376 2.72437e-19)
(1.00538 -0.00478365 -3.23425e-19)
(1.0012 -0.00105232 0)
(0.00779389 1.49763 0)
(0.0319508 1.38558 0)
(0.0337914 1.4606 0)
(0.00836654 1.2687 0)
(0.0173405 1.23364 0)
(0.012482 1.21077 0)
(1.03426 -0.00705548 0)
(1.02089 0.0161693 -3.65696e-22)
(0.806097 1.25429 8.85574e-20)
(1.00221 0.000386387 -2.71715e-19)
(1.00402 0.00534126 3.23143e-19)
(1.00118 0.00212635 0)
(1.01343 0.010555 2.69626e-19)
(1.00856 0.00868714 -3.26525e-19)
(1.00928 0.0156821 0)
(-0.0297067 2.62005 0)
(-0.0288372 2.59942 -2.51951e-21)
(-0.0291388 2.61347 2.46252e-21)
(1.22902 0.246978 2.64833e-19)
(1.15582 0.0791623 0)
(0.0442401 3.07378 -4.17098e-19)
(0.0652723 2.85245 -2.97177e-20)
(0.142112 3.19685 6.33615e-19)
(0.139381 3.22795 -8.26533e-20)
(0.133891 3.2346 0)
(0.0207989 3.13664 1.10935e-19)
(0.0759601 3.16139 4.06856e-19)
(0.069166 3.18571 -2.10953e-19)
(0.0239453 3.12906 0)
(0.650735 0.288318 0)
(0.568011 0.338849 0)
(1.10973 0.668659 7.70109e-20)
(1.13615 0.800759 -7.81813e-20)
(1.18172 0.551779 0)
(1.22857 0.496106 0)
(1.01634 0.0136553 -5.09182e-19)
(1.01512 0.0148237 6.38221e-19)
(1.02514 -0.0101511 0)
(1.02315 -0.0123814 0)
(1.00638 0.00258264 0)
(1.01013 0.00361205 0)
(1.00462 0.00186211 0)
(1.00983 0.00605347 0)
(1.00805 0.00631528 0)
(1.00442 0.00443165 0)
(0.0899706 1.34627 0)
(0.0875226 1.31801 0)
(0.122574 1.38428 0)
(0.142848 1.39753 0)
(0.148032 2.59492 0)
(0.188335 2.6585 -1.92828e-19)
(0.100304 2.65237 0)
(0.0920322 2.65413 9.47164e-20)
(0.0435971 2.68527 -7.9028e-20)
(0.0322757 1.29962 0)
(0.0186211 1.23632 0)
(0.0243046 1.31578 0)
(0.0269304 1.25464 0)
(0.00330702 1.98061 -1.31504e-20)
(-0.0208695 2.61707 6.60879e-21)
(-0.00923781 2.67166 2.29675e-20)
(-0.01705 2.6916 0)
(-0.0248817 2.62264 -3.04458e-20)
(-0.0239436 2.61734 -1.43842e-20)
(0.0144508 1.98079 1.14416e-20)
(-0.00998424 2.40636 -8.55417e-21)
(-0.0141375 2.42632 -2.72984e-20)
(1.01173 0.0366276 5.1203e-19)
(1.00726 0.0171082 -6.36734e-19)
(1.003 0.0431975 -5.15798e-19)
(0.98228 0.0238954 6.55001e-19)
(1.06297 0.0074242 0)
(1.04836 -0.00894154 0)
(1.09197 0.0307722 0)
(1.0725 0.0114797 0)
(1.07055 0.000395042 0)
(1.13274 0.0807082 0)
(1.10747 0.0416819 0)
(1.11282 0.0275547 0)
(-0.0162796 2.44796 -1.02059e-21)
(-0.0203904 2.01073 0)
(-0.0116643 2.22918 0)
(-0.0271952 2.61455 1.60316e-22)
(-0.0231438 2.6214 -2.31471e-22)
(-0.00132855 1.56829 5.48543e-21)
(0.0101709 1.51861 -5.51483e-21)
(0.00242306 1.38572 0)
(0.0112501 1.39787 0)
(0.016078 1.39405 0)
(-0.00237841 1.28298 0)
(0.0108926 1.21578 0)
(0.377733 1.48409 9.58482e-20)
(0.429087 1.48515 5.30438e-20)
(0.593387 2.43733 -1.02667e-19)
(0.403916 2.53525 2.99912e-19)
(0.345797 2.06622 3.33429e-20)
(1.02111 -0.00815629 0)
(1.01545 -0.00989208 0)
(1.01496 -0.0160839 0)
(1.00735 -0.00125295 0)
(1.00493 -0.00105831 0)
(1.00771 -0.00464878 0)
(1.00918 -0.00376045 0)
(1.01408 -0.00449379 0)
(1.02155 0.0162684 5.00225e-19)
(1.01822 0.0162234 -6.35367e-19)
(1.02186 0.0181844 -5.00742e-19)
(1.01972 0.0169111 6.28884e-19)
(0.771093 1.30584 0)
(0.710685 1.35726 8.58076e-20)
(0.873824 1.21512 2.77053e-20)
(0.933597 1.15318 -3.68434e-20)
(1.15718 2.60348 1.34102e-19)
(0.810266 0.112857 2.48523e-19)
(1.15125 0.108715 0)
(1.20526 0.190355 -2.12252e-19)
(1.19667 0.142653 -8.98583e-21)
(1.00204 0.14559 0)
(0.157111 2.96113 2.19281e-19)
(0.113101 2.86773 -5.58467e-19)
(0.0280323 2.38064 3.46906e-19)
(0.0952923 -0.0128039 -1.47327e-19)
(0.335384 3.42255 -8.32966e-20)
(0.197264 3.32062 0)
(0.227243 3.35514 1.08402e-19)
(0.255278 3.04118 -7.1871e-19)
(0.359658 3.20164 0)
(0.0058719 3.12073 2.10743e-20)
(0.0153679 3.12939 -2.52056e-19)
(0.0142427 3.12525 3.69657e-19)
(0.0352861 3.1402 0)
(0.0338335 3.15002 0)
(1.19154 2.64302 0)
(0.547569 0.838331 -2.18846e-19)
(1.0595 0.974857 9.75765e-21)
(0.96419 1.07105 0)
(0.818038 0.95343 -5.14736e-20)
(1.04867 0.881016 1.06126e-20)
(0.348869 0.391446 -3.92945e-19)
(0.687816 0.318886 -8.15784e-21)
(0.652026 0.23056 1.77899e-19)
(0.58161 0.385571 1.31403e-20)
(0.498223 0.336686 -5.30427e-19)
(0.660475 0.339011 0)
(0.711257 0.416653 3.00337e-19)
(0.717313 0.41413 0)
(0.617599 0.373628 0)
(0.589431 0.281536 0)
(0.802863 0.608279 1.79754e-19)
(1.21779 0.276779 -2.28162e-19)
(1.2236 0.404576 0)
(1.24572 0.343321 0)
(0.737281 0.188519 2.64532e-19)
(0.85297 0.53838 -1.64926e-19)
(0.750192 0.50925 2.92774e-19)
(0.954947 0.421196 -3.20663e-19)
(1.02001 0.0148277 3.40613e-19)
(1.01813 0.0144092 -3.42858e-19)
(1.01591 0.0162553 0)
(1.03584 -0.00633817 0)
(1.02957 -0.0087847 -3.2132e-19)
(1.02745 -0.012667 3.18775e-19)
(1.025 0.00988525 0)
(1.02382 0.0132569 0)
(1.01121 0.00398856 0)
(1.01431 0.00890901 0)
(1.01473 0.00409628 0)
(1.01386 0.00296721 0)
(0.0569361 1.32863 0)
(0.0607448 1.28639 0)
(0.143597 1.3537 -1.4407e-20)
(0.277356 1.46338 3.06645e-20)
(0.166673 1.43281 6.51184e-20)
(0.206952 1.44366 -1.06205e-19)
(0.166278 1.37704 0)
(0.131163 1.59284 -3.94178e-20)
(0.111006 1.56041 0)
(0.348267 2.01304 -4.8188e-20)
(0.349122 2.35953 2.61095e-19)
(0.191061 1.44642 3.44685e-20)
(0.252242 1.37121 1.99363e-21)
(0.198573 1.36034 -1.60293e-21)
(0.261135 1.31823 -5.80943e-20)
(0.23057 1.57669 0)
(0.259734 1.6065 5.92244e-20)
(0.0332242 2.26616 -1.8907e-20)
(0.0447264 2.67334 0)
(0.0643204 2.40452 7.42976e-20)
(0.0598543 2.42815 0)
(0.0720843 2.66562 -1.05388e-19)
(0.0543472 2.70114 0)
(0.0311568 1.3982 -5.42555e-21)
(0.0366694 1.45079 0)
(0.0322665 1.36972 0)
(0.0280547 1.37026 6.10778e-21)
(0.00107301 2.65756 -9.27584e-21)
(0.0308689 2.70118 9.04762e-20)
(0.0130813 2.72612 6.78532e-22)
(0.00453876 1.82829 1.08503e-20)
(-0.00328677 1.6741 5.04805e-21)
(0.0256711 1.28715 0)
(0.0266414 1.2173 0)
(0.052199 1.56526 9.71768e-21)
(0.0285772 1.43615 8.46035e-21)
(0.0401716 1.5024 -1.03782e-20)
(0.040901 1.59027 0)
(-0.0293651 2.28656 2.87485e-20)
(-0.0381939 2.56378 -1.37716e-20)
(-0.0118015 2.45883 -1.09069e-21)
(-0.00380397 1.84644 -1.31068e-20)
(-0.0271465 2.50707 -4.82778e-21)
(-0.0217682 2.45183 1.9934e-20)
(1.01979 0.0210602 -3.38372e-19)
(1.01603 0.0266199 3.4018e-19)
(1.01506 0.0166664 0)
(1.01185 0.0693351 4.73594e-19)
(0.99072 0.0591813 -5.31629e-19)
(0.950261 0.0408253 5.96158e-19)
(1.01467 0.103364 -6.32305e-20)
(1.04195 -0.00617142 0)
(1.05017 -0.00194015 3.08215e-19)
(1.03847 -0.0105291 -3.07538e-19)
(1.06954 0.0412264 -1.82118e-20)
(1.0633 0.0214618 1.5685e-19)
(1.06359 0.0517746 0)
(1.05212 0.0473633 -5.62889e-20)
(1.03297 0.0404908 0)
(1.02637 0.0367198 0)
(1.02754 0.0135149 0)
(1.02414 0.0160541 0)
(1.0396 0.0313892 1.15659e-19)
(1.03905 0.0257211 -2.55098e-19)
(1.04954 0.0312072 -1.23204e-19)
(1.04905 0.0312107 -1.35434e-19)
(1.06818 0.0615357 2.64889e-19)
(1.09173 0.0501018 0)
(1.10271 0.0923405 0)
(-0.0261786 2.28642 4.656e-21)
(-0.0192903 2.02466 -1.78834e-21)
(-0.0228291 2.02404 0)
(-0.0265026 2.45561 -4.84359e-21)
(-0.0156652 2.41331 2.68362e-21)
(-0.0343518 2.4875 2.06342e-22)
(-0.0214443 2.6288 1.21505e-20)
(-0.028637 2.57115 -1.12717e-21)
(-0.0210262 2.52327 4.21264e-21)
(-0.0193265 2.62399 -5.15714e-21)
(-0.0237559 2.62486 6.84558e-21)
(-0.0126017 1.48131 -3.74393e-22)
(0.00936552 1.61361 5.34774e-21)
(0.359955 1.42499 -3.79241e-20)
(0.358197 1.3694 2.8002e-20)
(0.652281 1.4096 -8.2932e-20)
(0.52142 1.47574 -5.13926e-20)
(0.584039 1.44406 0)
(0.582141 2.41514 9.69974e-20)
(0.654252 2.4127 1.47299e-19)
(0.404082 2.51209 3.70184e-20)
(0.406468 2.54621 -2.66167e-19)
(0.520012 2.49489 2.59093e-19)
(0.543062 2.45335 0)
(0.479696 2.50892 -2.42207e-19)
(0.237586 2.58481 5.08003e-19)
(0.347315 2.56487 -3.42516e-20)
(0.281345 2.64816 -6.90793e-19)
(0.932247 2.37634 3.28107e-19)
(0.82655 2.38317 0)
(1.01091 0.000239323 1.09806e-20)
(1.01523 -0.0054896 -9.09741e-21)
(1.01756 -0.0034941 -1.63914e-19)
(1.01483 -0.000922799 1.65697e-19)
(1.01219 0.000986909 0)
(0.635837 1.27505 0)
(0.6463 1.17101 0)
(0.747976 1.07567 0)
(0.646074 1.12867 0)
(1.18553 2.61373 2.68154e-20)
(1.07267 2.36181 0)
(0.851964 2.18074 1.69206e-21)
(0.821352 2.44614 0)
(0.921695 2.53813 -1.80163e-19)
(0.959073 2.4978 1.17044e-19)
(0.816223 0.167126 0)
(0.782958 0.137578 6.73816e-20)
(0.924476 0.142367 3.96331e-19)
(0.838161 0.1407 -1.4715e-19)
(0.814362 0.0859821 -4.55714e-19)
(1.07148 0.227451 -3.97714e-19)
(0.996597 0.292827 -6.36652e-21)
(0.923996 0.279455 3.67018e-19)
(1.00225 0.218066 3.082e-19)
(0.954008 0.18344 -5.26939e-19)
(0.921552 0.18682 6.56774e-20)
(0.951821 0.242394 -1.40998e-19)
(0.934119 0.210971 0)
(0.991906 0.179304 2.5995e-19)
(1.04372 0.181831 0)
(1.04075 0.210691 0)
(1.09952 0.11674 1.24543e-19)
(1.07304 0.171783 -5.96327e-21)
(1.06912 0.228105 -6.69692e-20)
(1.10235 0.199246 0)
(1.02219 0.0447173 2.62369e-19)
(1.04286 0.0568495 3.24819e-19)
(1.03486 0.0436035 -2.57634e-19)
(1.04336 0.0637135 -2.18217e-19)
(1.01825 0.0714231 -3.34088e-19)
(0.988552 0.150524 0)
(1.00129 0.101497 0)
(0.969209 0.0665315 -2.11798e-19)
(0.917469 0.0870219 8.26469e-20)
(1.03833 0.0992429 3.02272e-19)
(1.06814 0.11619 -3.57481e-19)
(1.07404 0.147798 3.16087e-19)
(1.0284 0.142067 0)
(1.07185 0.106306 0)
(1.05575 0.0851297 -1.45607e-19)
(1.04519 0.093168 -2.47139e-19)
(0.577203 1.0796 6.27514e-20)
(0.622463 1.39175 -2.68049e-20)
(1.1604 2.73969 -1.00921e-19)
(1.23771 3.07475 -2.29039e-22)
(1.24955 2.7116 -6.90885e-20)
(1.27984 2.70979 -2.89887e-20)
(1.16657 2.35292 8.10884e-21)
(1.226 2.96913 -5.94435e-20)
(1.24732 2.93838 1.27654e-19)
(1.24362 3.22965 -7.80632e-20)
(1.36611 2.96696 8.99127e-20)
(1.30395 2.89091 0)
(0.553126 0.843168 -2.08399e-20)
(0.114097 1.24521 2.53862e-19)
(0.554411 0.444718 2.57047e-19)
(0.363945 0.186242 2.78258e-19)
(0.521427 0.383244 3.00667e-19)
(0.555389 0.465541 -4.94787e-19)
(0.547042 0.481878 4.05284e-19)
(0.491401 0.395433 -1.53205e-19)
(0.40724 0.321935 3.44842e-19)
(0.739168 0.249424 -1.51149e-19)
(0.704776 0.277275 0)
(0.683519 0.201639 3.51502e-21)
(0.735836 0.511555 1.57724e-19)
(0.711354 0.475314 -5.77067e-19)
(0.611226 0.474458 5.21814e-21)
(0.625389 0.458677 0)
(0.671317 0.731764 1.70774e-19)
(0.841079 0.779947 1.68012e-19)
(0.754784 0.86143 -1.95721e-19)
(0.876201 0.806745 -6.80851e-20)
(0.89992 0.839068 -1.78906e-20)
(0.906008 0.840997 1.838e-20)
(0.853806 0.636805 -2.9956e-19)
(0.92391 0.708556 6.34517e-20)
(0.976515 0.714122 0)
(0.959984 0.681067 -9.0047e-20)
(1.02356 0.314712 9.27251e-20)
(1.12208 0.286392 1.33085e-19)
(1.0589 0.261508 1.59424e-19)
(1.01758 0.356585 -1.87277e-19)
(1.05948 0.417493 0)
(1.09915 0.401618 0)
(0.917323 0.347645 3.04218e-21)
(0.842499 0.285019 0)
(0.878756 0.282253 1.71598e-19)
(0.913292 0.285731 -3.19179e-21)
(0.944981 0.422 8.94384e-19)
(0.903591 0.484097 2.33734e-19)
(0.905622 0.447299 -2.47844e-19)
(0.8207 0.430402 2.6586e-19)
(0.806006 0.430483 1.59912e-19)
(0.77243 0.413676 -1.55681e-19)
(1.0272 -0.000363556 2.71405e-19)
(1.01986 -9.06236e-05 0)
(1.01847 0.000778156 1.79273e-19)
(1.02135 -0.00209474 -4.04211e-19)
(1.02219 0.00436143 1.96774e-19)
(1.02046 0.0112043 -4.14014e-19)
(1.02148 0.0105053 0)
(1.02104 0.0105207 -8.55275e-20)
(1.01591 0.00778191 2.14234e-19)
(1.01684 0.0103035 -1.08381e-19)
(1.01753 0.00958959 7.97956e-20)
(0.0290647 1.30597 0)
(0.0337594 1.34357 0)
(0.039724 1.30789 0)
(0.0373933 1.26638 0)
(0.0642353 1.37117 1.31899e-20)
(0.0727547 1.34108 -2.89471e-22)
(0.117904 1.4966 -1.5225e-20)
(0.0901241 1.35182 8.12996e-21)
(0.0331235 1.441 -1.96747e-20)
(0.0364118 1.43339 1.5145e-20)
(0.0583285 1.35349 -1.29493e-21)
(0.0530193 1.3544 -6.0414e-21)
(0.0445569 1.33075 -1.01224e-21)
(0.0385173 1.35332 -1.95279e-21)
(0.108485 2.37317 -8.01543e-20)
(0.0927126 2.42203 0)
(0.169029 2.06525 5.04062e-20)
(0.113901 1.70825 2.17942e-20)
(0.234928 2.05357 -4.04856e-20)
(0.206227 2.43913 0)
(0.26968 2.39312 -2.57944e-19)
(0.305917 2.39151 1.82413e-19)
(0.222897 2.00704 -1.17649e-19)
(0.151555 2.16828 7.82863e-20)
(0.153337 2.28406 0)
(0.0166639 1.87649 -2.04819e-20)
(-0.000591183 2.40323 -4.22261e-20)
(0.0058505 2.15516 0)
(0.0123698 2.46319 -5.67229e-21)
(0.0271291 2.30821 1.49617e-20)
(0.0245016 1.38308 4.22271e-22)
(0.0212672 1.37095 -4.10367e-21)
(0.0212726 1.37459 -2.57502e-22)
(0.0255666 1.37294 2.87461e-21)
(0.0308127 1.4029 0)
(0.0178619 1.35539 0)
(0.00383342 1.27765 3.97825e-22)
(0.0157392 1.34506 -5.60707e-22)
(0.0159391 1.34699 0)
(0.0172953 1.27548 6.71983e-24)
(0.0166292 1.20697 2.17623e-22)
(1.03967 0.0104982 0)
(1.04559 0.00703771 -2.87027e-20)
(1.03852 0.0204125 -2.05773e-19)
(1.04779 0.0193294 0)
(1.05127 0.0191316 0)
(1.03653 0.0108624 -2.78823e-21)
(1.03126 0.0104653 3.31394e-19)
(1.03171 0.0160393 4.05368e-19)
(1.02565 0.0201531 0)
(1.02325 0.0204759 0)
(1.03498 0.0247174 2.06082e-19)
(1.02651 0.0257323 0)
(1.02463 0.0256284 0)
(-0.0268786 2.0248 0)
(0.0144423 1.65085 -3.74958e-21)
(0.00245613 1.76348 -1.41568e-20)
(0.00767806 1.35904 0)
(-0.0117003 1.55134 2.24046e-21)
(0.00736465 1.44852 -2.04029e-21)
(0.00673744 1.36835 0)
(0.378756 1.67413 0)
(0.363239 1.29161 -5.26942e-20)
(0.307608 1.33989 0)
(0.417455 1.28781 3.0419e-20)
(0.466589 1.45448 0)
(0.446116 1.39978 -1.72168e-21)
(1.03036 2.68397 -6.99632e-21)
(0.957823 2.4113 -4.00977e-19)
(0.90646 2.19276 4.59296e-19)
(0.839633 2.37553 1.13472e-19)
(0.839841 2.4983 0)
(0.912254 2.49194 0)
(0.914922 2.37102 0)
(0.893925 2.35705 -4.14816e-19)
(0.684114 2.46146 -1.76061e-19)
(0.795522 2.45763 -4.24648e-20)
(0.807603 2.42735 3.36352e-20)
(0.685774 2.38918 0)
(0.791675 2.38829 0)
(0.747002 2.39805 -1.58467e-19)
(0.764333 2.49333 0)
(0.616906 1.10569 0)
(0.485389 0.922126 -2.11138e-19)
(0.566851 0.949221 -1.3658e-20)
(0.525151 1.05273 0)
(0.52832 1.00412 3.19637e-19)
(0.77754 0.888113 -5.68813e-20)
(0.781576 1.0107 0)
(0.755051 0.958366 8.53422e-20)
(0.640047 1.04246 0)
(0.648728 0.946217 0)
(1.16612 2.75511 -1.07136e-19)
(1.14299 2.82058 -4.96802e-20)
(0.938839 2.3342 5.91478e-20)
(0.899579 2.31323 -4.00937e-20)
(1.1289 2.72604 0)
(1.08113 2.69454 5.05316e-20)
(1.0881 2.47858 -1.40747e-19)
(0.979441 2.23297 -1.3824e-20)
(0.493358 1.3529 0)
(0.503086 1.07099 -5.49938e-20)
(0.560762 1.14702 0)
(0.864053 0.224497 0)
(0.787701 0.179698 0)
(0.727432 0.138924 0)
(0.860278 0.228313 -2.71204e-19)
(0.757992 0.213741 1.59013e-19)
(0.932593 0.0740317 -1.7171e-19)
(0.948549 0.121446 0)
(0.926362 0.131592 7.34601e-20)
(0.866314 0.108761 2.95812e-19)
(0.840025 0.0695622 -1.85624e-19)
(1.17387 3.36465 -3.05516e-19)
(1.22564 3.28599 0)
(1.1392 3.3829 -6.00382e-19)
(0.638269 3.54125 5.2487e-19)
(0.850703 3.10792 1.90163e-20)
(0.513332 0.850811 2.5563e-19)
(0.420374 0.844688 0)
(0.325347 0.493856 -6.33012e-20)
(0.458913 0.67767 3.58235e-19)
(0.550246 0.457757 -8.77967e-20)
(0.521191 0.511751 9.92684e-20)
(0.659446 0.527015 2.16109e-19)
(0.694115 0.54399 0)
(0.652154 0.605184 0)
(0.607221 0.543275 0)
(0.982646 0.596264 4.5627e-20)
(0.906303 0.532708 -2.25665e-19)
(0.929669 0.565034 1.75945e-19)
(0.963811 0.504851 -1.75567e-19)
(1.07341 0.477263 0)
(1.06602 0.559351 -4.48149e-20)
(0.84509 0.386187 -3.62597e-19)
(0.84963 0.37399 -4.40696e-19)
(0.795905 0.373618 2.81227e-19)
(0.793835 0.349394 -2.86778e-19)
(0.842719 0.307935 -2.24855e-19)
(0.792586 0.306915 2.76644e-19)
(1.02667 0.00571262 -2.10329e-19)
(1.02631 0.00612088 4.35735e-19)
(1.02947 -0.000486196 2.63077e-19)
(1.0334 0.000789935 -3.1808e-19)
(1.03301 0.00753173 0)
(1.02995 0.00843806 -5.20973e-19)
(0.0639441 1.63771 1.22074e-20)
(0.0448565 1.56767 0)
(0.0891734 1.68623 8.70921e-20)
(0.0973705 1.66837 -7.7843e-20)
(0.0913352 1.51532 2.84407e-20)
(0.0881815 1.50039 0)
(0.0154034 1.67699 0)
(-0.000587644 1.47816 -2.44529e-21)
(0.00301311 1.42047 2.19715e-21)
(-0.00553239 1.54268 2.66965e-21)
(0.00385409 1.8831 -4.61513e-21)
(-0.012879 1.93407 3.91299e-21)
(0.493868 1.37021 -1.21352e-19)
(0.488568 1.37675 1.30653e-19)
(0.442031 1.28632 -2.49986e-20)
(0.430365 1.28734 3.85694e-21)
(0.623743 1.29659 0)
(0.54314 1.38458 3.10533e-20)
(0.559811 1.39607 -3.01304e-20)
(0.453004 1.2726 2.42533e-20)
(0.507546 1.22974 0)
(0.552664 1.19147 0)
(0.645657 2.41907 2.6422e-19)
(0.669462 2.46117 5.36139e-19)
(0.708212 2.47516 -3.67801e-19)
(0.607247 2.45635 -8.68753e-20)
(0.561323 2.54273 1.24963e-19)
(0.52279 2.52391 -3.22744e-19)
(0.973358 2.37725 -2.5579e-19)
(1.00965 2.38786 0)
(0.916431 2.17181 -2.98592e-19)
(1.05138 2.67508 0)
(1.05437 2.66177 0)
(0.605206 2.25236 -7.28535e-20)
(1.02963 3.15669 4.42926e-20)
(0.896672 3.01689 1.26355e-20)
(0.28527 0.904875 0)
(0.323939 0.746223 -1.34626e-19)
(0.465661 0.71582 -1.34867e-19)
(0.400457 1.9792 0)
(0.478657 2.7854 -1.34628e-20)
(0.434553 2.5687 0)
(0.686221 0.669476 -3.60456e-19)
(0.772737 0.68345 4.85611e-19)
(0.800294 0.618075 -4.76998e-19)
(0.676084 0.634889 -4.65743e-20)
(0.725673 0.591571 -1.91253e-19)
(1.01523 2.76237 -3.3452e-20)
(1.04754 2.83208 -5.41479e-20)
(0.656089 2.1359 2.96908e-19)
(0.584253 1.71363 -2.0535e-19)
(0.711169 1.90614 -1.78621e-19)
(0.996403 2.46775 -4.57543e-20)
(0.997543 2.45535 1.11163e-19)
(0.668558 1.87192 1.00286e-20)
(0.46092 1.33556 6.47138e-20)
)
;

boundaryField
{
    wall-4
    {
        type            noSlip;
    }
    velocity-inlet-5
    {
        type            fixedValue;
        value           uniform (1 0 0);
    }
    velocity-inlet-6
    {
        type            fixedValue;
        value           uniform (0 3 0);
    }
    pressure-outlet-7
    {
        type            zeroGradient;
    }
    wall-8
    {
        type            noSlip;
    }
    frontAndBackPlanes
    {
        type            empty;
    }
}


// ************************************************************************* //
