/*--------------------------------*- C++ -*----------------------------------*\
| =========                 |                                                 |
| \\      /  F ield         | OpenFOAM: The Open Source CFD Toolbox           |
|  \\    /   O peration     | Version:  4.0                                   |
|   \\  /    A nd           | Web:      www.OpenFOAM.org                      |
|    \\/     M anipulation  |                                                 |
\*---------------------------------------------------------------------------*/
FoamFile
{
    version     2.0;
    format      ascii;
    class       volScalarField;
    location    "43";
    object      p;
}
// * * * * * * * * * * * * * * * * * * * * * * * * * * * * * * * * * * * * * //

dimensions      [0 2 -2 0 0 0 0];

internalField   nonuniform List<scalar> 
918
(
0.577994
1.22606
0.00283511
0.577241
-0.0117852
1.19369
-0.477947
0.730527
0.557869
-0.0711549
-0.00305428
0.554033
1.05449
0.819791
-1.09623
0.00272079
0.680427
-0.362093
0.557253
-0.013202
0.766355
0.564315
0.567338
0.557731
0.623797
0.801741
0.935068
0.0286742
0.00061664
-0.00262879
-0.0119797
-0.0438066
-0.0304694
1.07705
1.12768
1.15026
0.526363
0.364526
-0.327928
-0.406909
-0.399579
-0.522292
0.725057
0.723745
-0.164562
0.733829
0.740417
0.545422
0.557208
0.558153
0.55923
0.558187
0.559609
0.436598
-0.0755081
-0.108725
-0.0515365
-0.0415621
0.0842473
-0.00380783
-0.00524643
-0.00261348
-0.00556798
0.476185
0.54951
0.546748
0.559212
0.569171
1.16482
1.13586
1.16146
1.07844
1.09328
1.03218
1.00423
0.841049
0.862666
0.806073
0.794128
-1.51514
-2.47313
-0.511288
-0.259125
-0.0128626
0.00862268
0.020932
0.672592
0.671589
0.681505
0.693767
1.11547
-0.33352
-0.485976
0.557065
0.556045
0.564154
0.564513
0.561678
0.559759
-0.0119829
-0.0103131
-0.0150851
-0.012956
-0.0181631
0.754668
0.75308
0.559409
0.556002
0.573881
0.593473
0.587393
0.305515
0.626211
0.637559
0.62238
0.790808
0.785728
0.793738
0.90939
0.873195
0.972564
0.995756
0.015868
0.00355114
-0.00437909
-0.0132727
-0.011416
0.52229
0.514219
0.541339
0.529771
0.532207
0.281454
0.148432
0.45762
0.485856
-0.242609
-0.313669
-0.397947
-0.428673
-0.529106
0.647295
0.714155
0.712772
-0.174228
-0.109525
-0.237388
-0.0273282
-0.0928372
0.535737
0.542734
0.537089
0.552769
0.547487
0.549083
0.561523
0.55859
0.560111
0.497266
0.600109
0.367845
0.328224
-0.218039
-0.12174
-0.215375
-0.027703
-0.0219523
0.101017
0.127883
0.072333
0.066008
-0.0170784
-0.00714417
-0.0110924
-0.00469956
-0.00726402
0.470675
0.460544
0.489722
0.49693
0.539851
0.540832
0.544051
0.542562
0.954441
0.976865
0.985486
0.959114
-3.48764
-6.54119
0.0645657
0.205112
-0.00212314
-0.0101478
0.00475818
-0.00296003
-0.000849129
-0.00101348
0.0222337
0.0241235
0.0253363
0.0355621
0.661049
0.661514
1.02098
1.01554
0.983678
0.926867
0.545293
0.547403
0.552888
0.548395
-0.008178
-0.0103025
-0.010757
0.74189
0.749035
0.746958
0.268451
0.182339
0.356195
0.384915
0.652639
0.642114
0.650719
0.683739
0.719877
1.00219
1.02016
1.02027
1.02836
1.07348
1.08641
1.0522
0.502476
0.512013
0.507567
0.544479
0.542203
0.543088
0.538863
0.540145
0.537583
-0.0213176
-0.381861
0.546172
0.561431
0.542697
0.548168
0.718629
0.786182
0.694489
0.704175
0.702789
0.0404337
-0.0209562
0.283327
0.25022
0.411257
0.447208
0.424222
0.925546
0.887321
0.937364
0.910291
0.870821
0.896204
-0.420901
-1.6585
-0.920129
0.564834
0.37312
0.462297
0.0450428
0.0233474
0.0290709
1.00325
1.09353
0.647629
0.83534
0.88339
0.759381
0.789485
0.846896
0.77152
0.805536
0.839627
0.820018
0.604767
0.559732
0.563435
0.849035
0.903033
0.160713
0.109083
0.0523729
0.145432
0.199955
0.17413
1.0427
0.957407
1.03011
0.555613
0.556226
0.00949973
0.0101381
0.56043
0.560626
-0.00583
0.00434198
0.448572
-0.79
0.13533
0.548572
0.538844
0.555816
-0.0606989
0.399571
-0.00386828
0.0863418
0.0262511
0.551394
0.486998
0.448578
0.00985393
-0.00510235
-0.00764816
-0.199386
0.553128
0.55128
0.555332
0.556376
0.557014
-0.00599975
0.00352357
5.80795e-05
-0.0102568
-0.00983371
-0.011663
0.520476
0.537982
-0.14241
0.555456
0.557665
0.557474
0.55035
0.556197
0.55413
0.00811859
-0.00280042
-0.00807426
0.256053
0.381235
0.69087
0.790546
0.662087
0.427729
0.175131
0.595087
0.658442
0.566085
0.717714
0.706882
0.72739
0.208336
0.0470261
0.20937
0.14914
0.546764
0.545178
0.537252
0.534233
0.550784
0.548973
0.553361
0.550327
0.553223
0.554666
-0.01281
-0.0399716
-0.0528167
-0.12779
0.355462
0.622303
0.29052
0.331339
0.174166
0.00180256
0.00124691
-0.00327285
-0.0079049
0.0430462
0.00966546
0.0816336
0.0791462
0.0482514
0.0212049
0.0318261
0.0144672
0.0179892
0.544748
0.54316
0.549433
0.558023
0.496425
0.500143
0.465802
0.486178
0.471256
0.413622
0.448025
0.423338
0.00473457
0.016343
0.00219212
-0.00123209
0.00205118
0.00391072
-0.00301347
-0.00355631
0.00498362
-0.00421677
-0.00508453
-0.0128844
-0.156027
-0.26683
1.018
0.94983
0.145164
0.542107
0.548696
0.545308
0.550324
0.553383
0.554237
0.552
0.54857
0.53856
0.540314
0.536836
0.537531
-0.0730286
-0.218174
-0.0500662
-0.113852
0.15549
0.64247
0.392521
0.320705
0.321242
0.54889
0.967352
0.729297
0.714924
0.751225
-0.331221
0.0404213
-0.271174
0.319863
0.145175
0.691077
0.7422
0.764996
0.710759
0.663815
-0.223435
0.567362
-0.0347097
0.0123012
0.216087
0.103462
0.731399
0.690918
0.696108
0.715923
0.73591
0.694441
0.678085
0.674933
0.71142
0.716107
0.521512
0.289278
0.234197
0.201513
0.674803
0.559424
0.611768
0.523945
0.541676
0.544435
0.542976
0.525229
0.532683
0.528246
0.534345
0.537567
0.546755
0.547317
0.542348
0.544602
-0.0125083
-0.018012
0.0116649
-0.109826
-0.0990866
-0.179831
-0.0248074
0.0969383
0.0653051
0.261845
0.342577
0.0714637
-0.0254988
0.00169651
0.0247023
0.197384
0.254893
0.112395
0.192397
0.190165
0.169849
0.285261
0.281414
0.0138392
0.00794256
0.0084466
0.00725412
0.0554829
0.125786
0.142967
0.03049
0.0264292
-0.00132146
-0.0030964
0.0118395
0.00953907
0.012586
0.0489636
-0.060302
-0.00462579
0.0174421
0.0345151
0.0275383
0.0165246
0.537577
0.539662
0.539419
0.54736
0.564787
0.58076
0.537762
0.518788
0.509431
0.512231
0.485773
0.496338
0.491672
0.504721
0.52546
0.534599
0.532604
0.535283
0.518196
0.519861
0.506873
0.510221
0.487034
0.468047
0.456024
-0.00702046
0.0242725
0.0324259
-0.0146487
0.0114051
-0.000754067
0.0188945
0.037704
0.0221738
0.0110353
0.00575322
2.6016e-05
0.00830401
-0.0537248
0.0343863
-0.159383
-0.195785
-0.271012
0.920057
1.02609
0.842413
0.609749
0.622832
0.869298
0.951893
0.580318
0.75306
0.78185
0.620561
0.864003
0.547178
0.546737
0.544276
0.543806
0.545124
0.0176116
0.124763
0.123446
0.18874
0.30081
0.422767
0.329668
0.203256
0.334533
0.324676
0.635873
0.651836
0.606967
0.628579
0.631116
0.453539
0.529109
0.583079
0.540648
0.586719
0.605661
0.567176
0.594772
0.547738
0.501271
0.501069
0.449909
0.463433
0.442354
0.425679
0.537025
0.513866
0.524403
0.514749
0.535648
0.558271
0.553204
0.5875
0.598545
0.519728
0.477217
0.48451
0.516765
0.477605
0.492424
0.507232
0.249354
0.178983
0.217429
-0.0725959
0.0119057
-0.0644596
-0.095431
0.0212778
0.32066
-0.417458
-0.480116
-1.03498
0.511642
1.03706
0.685561
0.629261
0.733242
0.711003
0.713565
0.74206
0.743633
0.665918
0.68193
0.689384
0.643952
0.666222
0.695967
0.69081
0.552042
0.405436
0.39806
0.358748
0.233721
0.273082
0.475697
0.39039
0.315707
0.330122
0.489944
0.382858
0.448494
0.476306
0.396314
0.36941
0.565819
0.6363
0.624688
0.597695
0.519512
0.532339
0.56078
0.594895
0.619888
0.656686
0.533972
0.53977
0.541057
0.538576
0.535691
0.538609
0.538787
0.541398
0.542161
0.545262
0.54422
-0.00389808
0.00702165
-0.00539174
-0.0136694
0.0137159
0.0113628
0.0614879
0.0457445
0.0259869
0.0325654
0.0074051
0.00779524
0.0098798
0.0171618
0.138776
0.139191
0.12006
0.0883862
0.266333
0.403996
0.467631
0.346894
0.255975
0.281699
0.294544
0.0190648
0.0461698
0.0360952
0.0726665
0.0701315
0.00287664
-0.0020323
0.000268552
0.00510875
0.0197049
-0.00194022
-0.00868913
0.0011589
-0.00249994
-0.0035395
-0.00876554
0.521342
0.514889
0.515268
0.509852
0.508939
0.52196
0.526313
0.528687
0.534035
0.535888
0.52663
0.531842
0.535385
0.0171877
-0.00995422
-0.0203635
0.00398314
-0.00324637
0.000474904
0.00207821
0.144863
0.0771792
0.074447
0.0318701
-0.0996426
-0.0422789
0.514705
0.514938
0.519006
0.740595
0.593754
0.518624
0.62096
0.719936
0.292677
0.485652
0.321365
0.905982
0.795899
0.941797
0.550138
0.256533
0.418366
0.475521
0.265349
0.343113
0.342457
0.242393
0.270909
0.295619
0.399964
0.290241
0.273263
0.0234875
0.217755
0.335081
0.321255
0.447296
0.514671
0.271321
0.199675
0.167948
0.62785
0.646127
0.666135
0.636335
0.660762
0.597137
0.58503
0.603814
0.612789
0.60844
-0.760987
-0.468948
-1.38376
-0.673998
-0.233293
0.543493
0.509422
0.786528
0.669922
0.724794
0.710586
0.679027
0.643634
0.658014
0.688201
0.386737
0.493135
0.470038
0.472721
0.364659
0.308394
0.606002
0.598022
0.637385
0.660313
0.627602
0.66171
0.53164
0.531346
0.530876
0.527388
0.525878
0.527963
0.0957494
0.0621372
0.107346
0.0869366
0.0624681
0.0459829
0.02877
0.0189588
0.00497635
0.00288109
0.0210712
0.0264136
0.178042
0.117227
0.048454
0.0749996
0.0148746
-0.0541876
-0.0730963
0.0308833
0.123338
0.124694
0.430441
0.669544
0.489323
0.659535
0.525904
0.557046
0.509739
0.506115
0.53256
0.416621
0.490677
0.309113
-0.22761
-0.107777
0.769953
0.831134
0.606536
0.48
0.189011
0.315461
0.578336
0.502679
0.544902
0.617286
0.607094
0.0335228
0.060274
0.399273
0.600491
0.262454
0.196015
0.211947
0.375753
0.328902
)
;

boundaryField
{
    wall-4
    {
        type            zeroGradient;
    }
    velocity-inlet-5
    {
        type            zeroGradient;
    }
    velocity-inlet-6
    {
        type            zeroGradient;
    }
    pressure-outlet-7
    {
        type            fixedValue;
        value           uniform 0;
    }
    wall-8
    {
        type            zeroGradient;
    }
    frontAndBackPlanes
    {
        type            empty;
    }
}


// ************************************************************************* //
