/*--------------------------------*- C++ -*----------------------------------*\
| =========                 |                                                 |
| \\      /  F ield         | OpenFOAM: The Open Source CFD Toolbox           |
|  \\    /   O peration     | Version:  4.0                                   |
|   \\  /    A nd           | Web:      www.OpenFOAM.org                      |
|    \\/     M anipulation  |                                                 |
\*---------------------------------------------------------------------------*/
FoamFile
{
    version     2.0;
    format      ascii;
    class       surfaceScalarField;
    location    "43";
    object      phi;
}
// * * * * * * * * * * * * * * * * * * * * * * * * * * * * * * * * * * * * * //

dimensions      [0 3 -1 0 0 0 0];

internalField   nonuniform List<scalar> 
1300
(
3.75095
5.62643
-3.11552
3.75095
-7.67134
5.62643
-4.40737
4.40737
-0.789905
0.789905
1.87646
1.87449
-2.97653
2.97653
-2.46495
2.46495
-2.54564
2.54564
-5.24648
5.24648
-5.06873
5.06873
4.65961
-4.65961
-6.21787
6.21787
-1.12927
1.12927
-3.87017
3.87017
3.16875
-3.16875
-2.29741
2.29741
-0.194908
0.194908
-0.553133
4.30409
3.19782
3.19782
-2.01955
2.01955
-4.86609
4.86609
6.2177
-6.2177
5.09506
-5.09506
-1.97954
-2.30599
1.82174
-11.592
-5.8496
-5.8496
-8.44023
8.44023
-2.8138
2.81263
2.94483
-2.94483
-1.86609
1.86609
-4.32007
-0.0872998
-4.32007
4.41703
-0.00965299
4.41703
-0.875038
0.0851329
-0.875038
3.9166
-3.9166
0.672231
0.117674
0.672231
3.06516
-3.06516
-1.87717
3.75363
1.87378
-1.87178
6.17587
-1.87917
3.75366
-5.96498
5.96498
-3.18233
0.205801
-3.18233
2.794
0.18253
2.794
-6.7948
6.7948
-2.5149
0.0499478
-2.5149
2.39109
0.073859
2.39109
2.87008
-2.87008
-2.65045
0.104815
-2.65045
2.43099
0.114648
2.43099
0.353678
5.27275
-5.98011
8.79274
-5.27275
0.0262676
5.20831
0.0381699
5.20831
-5.10577
0.0370459
-5.10577
5.01158
0.057145
5.01158
4.73472
-0.0751101
4.73472
-4.78498
0.125369
-4.78498
-3.43074
-4.07382
-6.37552
0.157653
-6.37552
-1.14761
0.0183449
-1.14761
1.08395
0.0453234
1.08395
-3.6411
3.6411
-4.18822
0.318057
-4.18822
3.1226
0.0461579
3.1226
1.86902
1.88193
5.61998
-5.61998
2.45122
-2.28424
-0.0131666
-2.28424
-2.28937
-2.80569
2.28937
0.00803508
-0.43281
0.237902
-0.43281
3.16012
0.0377024
3.16012
2.27524
0.155756
-2.27524
0.255687
3.24264
-3.24264
1.34988
0.669666
1.34988
-5.56718
5.56718
4.95408
0.0575005
-4.95408
0.0879973
6.15644
0.0612601
6.15644
-6.19975
-0.0179495
-6.19975
2.70048
-5.00647
-2.52561
6.03117
0.1867
-6.03117
0.181566
2.91545
0.0293795
2.91545
-2.91875
2.91875
-2.98412
0.0392815
-2.98412
-2.24879
0.382701
-2.24879
1.5809
0.28519
1.5809
-4.19044
-0.129634
-4.19044
-4.33472
0.146495
4.33472
0.0823096
1.17947
-1.17947
-0.981795
0.106756
-0.981795
-4.04535
-0.145091
4.04535
-0.128746
-3.7922
-0.124406
-3.7922
-3.02408
0.0399641
3.02408
0.0410817
3.1132
0.0469172
-3.1132
0.0480398
-1.87089
3.75282
-1.88006
3.75384
-5.5902
-0.37478
-5.5902
6.27587
-0.310888
6.27587
3.54134
0.328822
-3.54134
0.359015
2.66973
0.124267
2.66973
-6.76059
-0.0342161
-6.76059
6.78036
0.0144468
6.78036
2.58265
0.0870838
-2.58265
0.067745
2.33411
0.0569879
2.33411
2.88982
-0.0197374
2.88982
-2.86839
-0.00168754
-2.86839
2.79666
-2.79666
2.72771
0.0689533
-2.72771
0.0772543
-11.1329
11.115
-0.0352888
-11.0977
5.17303
5.17303
4.14949
0.585227
4.14949
-4.99958
0.214602
-4.99958
2.83646
-5.36207
3.08513
-6.51587
4.69298
-16.285
4.32544
-8.39926
6.63303
-6.63303
6.51194
0.121095
-6.51194
0.136421
-1.20926
0.0616426
-1.20926
-3.04185
-0.599247
-3.04185
4.28781
-0.646707
4.28781
-3.02767
3.02767
-3.07666
0.0489817
3.07666
0.0459407
2.27755
0.05656
-2.27755
-0.00669483
0.553975
0.118256
-0.553975
0.121165
3.43289
-0.190253
3.43289
-3.0538
-0.188833
-3.0538
-1.2758
0.066538
1.2758
0.0740887
-5.81687
0.249692
-5.81687
-11.1908
0.0931185
-11.1526
-6.10664
-6.10664
2.33359
11.1263
-2.88949
0.0210942
2.88949
0.025968
2.97424
0.0534298
-2.97424
0.0554925
-2.85983
0.0631659
2.85983
0.0589238
-2.63182
0.383025
-2.63182
-1.16975
1.16975
-1.34456
0.174809
1.34456
0.236336
1.41499
-0.235513
1.41499
1.04305
0.0408924
-1.04305
0.0612594
-3.69893
-0.0932701
-3.69893
6.51147
-0.235598
6.51147
-2.94571
-0.108097
2.94571
-0.0558896
-0.0333634
11.1484
-5.13966
0.0338879
5.13966
-11.2096
11.2435
-3.25768
0.625863
3.25768
0.891813
5.29007
0.277106
-5.29007
0.290491
6.72626
0.0540993
-6.72626
0.0932229
-2.56032
-0.48153
-2.56032
-5.02446
-0.565747
5.02446
-0.73665
-11.4741
-0.203161
11.6773
-11.417
6.02003
0.136416
-6.02003
11.3799
-1.10342
-0.0760487
1.10342
0.0663304
1.71725
-0.302264
1.71725
3.60834
-0.175451
-3.60834
-0.0905863
-6.66862
-0.0919683
6.66862
-0.15715
-2.11743
-0.442895
2.11743
-0.400177
-4.26691
4.30461
1.90896
-2.5385
-2.46797
-5.3442
1.85154
1.90128
4.30276
-10.2048
-6.08018
-10.0233
7.25693
-6.96644
-9.26524
9.19013
7.70721
-7.83162
-5.78701
5.83295
6.48284
-6.44176
1.87876
1.87488
7.89107
-7.68527
-15.6264
15.2516
7.43017
-7.38022
15.7996
-15.8339
-17.9027
17.9568
-5.71032
5.81513
-6.72991
6.72823
-6.94957
6.89368
-2.90321
-3.61266
13.1842
-13.0266
8.37473
-8.3879
-8.56778
8.88584
3.38198
0.92263
3.4289
-1.88231
3.76106
-1.87135
3.78032
2.6778
-5.58102
2.68427
-5.15223
4.16915
4.20559
-4.17718
-1.16701
-5.92014
5.94952
-5.8209
5.87982
9.00168
-9.08898
-1.88521
3.76008
-1.86864
3.76992
-3.42649
-2.36052
3.38033
0.922432
8.11069
5.07354
-8.29739
-1.72588
-7.98174
7.80629
-8.18491
7.99608
-0.434545
5.81767
-5.38313
4.43154
-1.55804
7.37571
5.69889
5.91349
5.86255
-5.58545
1.10389
-6.48701
-6.39902
-2.45898
2.56573
2.39853
-2.28086
5.99811
1.7091
5.86937
-5.69164
-2.13998
-5.78491
3.82173
2.01122
3.87071
4.07692
2.40592
4.11688
3.03058
-3.0356
0.00501349
-3.05632
6.0869
0.724487
-5.41684
-4.4944
4.92789
2.96319
5.11042
-5.48446
-2.20081
-5.12545
-9.52925
-6.09712
-10.095
10.0999
5.15174
9.78897
-11.9793
11.8222
4.72652
2.70365
4.80038
-4.88269
-2.49753
-4.81494
11.6204
-2.6059
-9.01453
-10.3457
-7.557
10.3313
5.46839
10.996
6.96083
11.0892
4.43862
7.18181
-9.90701
2.35001
-3.86551
-1.84481
-3.78826
3.68347
2.13166
3.79812
-4.21406
-2.51585
-4.19297
-4.28815
-2.66142
4.30788
2.42034
-4.40388
-3.78103
4.51198
2.3817
4.05919
-10.1394
4.34006
-7.95272
-9.24673
-3.77985
-9.11031
3.48424
2.6043
-6.08854
-2.09678
8.41603
-4.21044
7.24901
-5.11001
-3.27789
-5.11671
-6.81114
-1.75664
-6.66465
-8.84611
8.36458
-9.16956
8.52286
12.586
-5.6745
-6.91153
-3.96852
-2.47324
3.92048
-0.491581
-3.7107
3.71571
0.0503661
3.83068
4.75331
4.26173
-3.88757
-1.93333
-3.83208
3.83112
2.0487
3.89428
6.77998
2.2217
6.77033
-6.49497
-2.59401
-6.6246
9.04007
-8.65736
2.90871
-2.84217
5.35757
2.63851
-5.16731
-2.81442
6.19657
-3.19093
-3.00564
-12.215
10.5767
1.63828
-4.83926
-0.407721
-0.212813
-5.48696
-3.77829
5.36159
0.551902
11.1286
7.35031
-5.51111
5.7608
6.16616
6.22366
-0.175353
5.7741
-5.14824
5.33172
-2.47752
-2.8542
5.34873
-5.49382
-1.27587
-5.36441
4.08854
0.375546
1.64687
-1.40897
-1.90809
-0.550884
-1.84683
1.44218
0.956352
1.56044
0.934159
1.63157
-2.94672
0.564152
2.38257
-2.01256
-1.71671
-3.7108
-1.14367
4.85447
5.72025
2.08603
-5.62967
-0.15524
2.61054
-2.56522
-0.721513
-2.98929
2.20012
-2.92163
-3.69653
-1.92757
5.6241
-3.3711
-0.460983
3.31767
0.553045
-3.82575
-2.09439
3.78647
0.330412
-3.12573
6.18841
-3.06269
-5.05905
2.52865
3.55826
4.53986
-4.78904
2.44639
2.34264
-1.23078
4.21746
0.892952
4.34173
-6.78187
4.58106
5.75007
3.13577
-6.07889
0.953445
-5.82843
8.46561
-7.27987
-1.18574
4.10862
4.35699
7.12256
5.46346
-5.7276
12.8502
-1.17761
-6.10226
7.00604
-3.87027
4.76278
-8.63305
-10.2262
4.12399
-9.17021
10.9417
-1.77153
-3.63333
-8.34602
12.8035
-1.20735
-11.5962
8.58162
-4.1495
-4.25384
8.40335
-6.7554
6.75137
-1.95002
-4.80135
-10.122
-5.71181
10.214
1.60818
-9.84217
12.1922
-2.66036
4.06404
0.736345
4.12102
3.23077
-5.4072
2.17643
3.52463
-5.47465
2.0605
-7.4677
-6.76556
12.1401
-5.37457
-10.5454
-9.55597
-0.989438
2.53829
9.65389
-9.49912
7.45598
2.04314
3.30749
0.58679
-3.37645
-0.411813
0.239967
4.53435
-4.77432
4.03809
4.19384
3.3338
1.20055
3.84195
2.10757
-3.86792
-0.325052
-4.15406
1.49264
-1.73372
-3.68203
5.17466
-4.06927
0.387244
-2.73961
-3.50595
6.24556
-4.58441
3.0367
3.15172
5.0854
-4.91296
1.407
-2.39933
-2.51362
2.66227
-4.39598
1.97798
3.19669
4.35968
0.578648
5.92461
6.21551
-8.52892
0.576195
11.2891
-9.56318
2.47364
8.61556
-9.92962
0.373655
-8.73666
1.00895
-5.21939
-5.07959
5.08935
-6.84599
-3.5437
6.15449
0.615834
-6.2368
-0.427847
-6.0263
-2.81981
-6.46919
-3.04401
-6.12555
-8.77161
-1.63978
-7.13183
6.7248
-6.67089
-3.42412
7.40754
1.11532
-7.39725
7.32121
-7.47883
7.17656
0.0951637
3.62055
4.3569
1.88366
-2.38977
4.27343
-5.08278
7.30448
-8.57716
3.49438
4.0419
-6.63592
-4.53526
5.03278
4.00728
5.31797
8.91481
-10.4066
1.49184
-10.7278
12.037
-1.30911
-16.4891
5.76127
-7.57431
2.57243
0.336278
2.63407
0.594144
2.49399
-3.08813
-2.24802
-2.17394
-2.38487
-3.44492
5.82979
1.12454
-3.47369
2.34915
-3.54936
4.6739
-0.131227
-3.34246
5.30279
-2.8088
5.63906
-3.68059
1.95847
3.38777
5.72733
-2.33956
4.37762
-1.73911
1.88172
-4.22128
-1.5632
-2.96352
5.09518
-3.28204
3.66928
-0.320862
3.99015
-4.08397
0.893041
-0.750171
3.44367
3.69936
4.29018
-3.08963
2.93674
-4.67585
-1.28454
-4.0972
-0.900516
-0.283935
-3.76156
4.0455
6.03458
-6.31852
-5.22399
9.54089
-4.31691
7.72422
-5.38473
-2.3395
-4.24622
-4.41114
3.8632
1.9109
9.63513
0.238235
-5.62296
-4.91
-4.01819
3.18518
2.14653
-1.87065
3.50893
2.08346
-0.43659
0.520759
1.03968
1.85014
-1.32938
0.248124
1.60201
-1.16084
1.88881
0.721737
-1.9297
0.0828647
-1.31001
3.51013
1.07256
-2.02891
0.699532
1.02939
-3.5069
4.96995
-2.59613
-2.37382
5.99933
1.12906
-3.72519
4.23535
-3.8598
2.33284
-3.47651
-1.39235
-5.25215
-3.54305
-2.55594
4.90509
-3.27385
5.35988
1.20856
-5.20464
6.4132
-3.62305
1.69549
-3.09652
3.81826
-1.05085
-2.04567
2.86591
2.75819
-2.97744
-0.0118417
-0.11153
2.36511
-2.47664
-0.556524
-2.56908
-4.57322
4.90363
-2.10613
4.55253
2.1673
-1.91551
6.46804
1.81032
-3.72583
-3.24873
-3.70971
-1.38319
3.15667
-0.593981
-4.22096
-5.39533
4.13388
0.207851
-6.90636
7.70868
-0.802324
-3.94317
-0.637892
4.74651
-5.95476
0.480107
-3.89426
3.81442
4.70738
4.91523
-11.3841
-0.212038
-6.2324
1.15009
-7.38249
5.50707
-3.59848
7.72247
-10.367
6.94289
-9.25168
6.53673
-0.845766
6.24702
-4.0706
2.76751
-8.47932
-6.87114
5.39701
-2.69336
6.13335
-3.04962
9.18297
-5.70999
5.15044
4.03254
-0.96851
-4.1482
-5.17982
4.21131
-0.0293857
4.09164
4.97453
-2.86696
4.64948
2.26235
-4.66169
-2.13363
-6.49934
1.83766
-3.34763
-1.91754
3.7552
3.16786
3.75465
1.24158
-3.34284
7.17704
-8.16648
-1.80247
-3.27712
5.15374
-0.942426
3.34354
-6.62066
-1.87585
4.86469
-0.849115
-4.01558
0.809804
-4.3535
1.66994
-6.02344
5.17605
-5.6039
2.19244
-9.76675
-5.20481
-5.13848
-2.23486
-5.24397
-7.603
5.36814
-1.84172
5.47948
-8.55829
7.70917
-3.47866
8.8468
-5.43421
-1.03498
5.83439
1.34218
10.189
0.185866
-4.72112
-1.91602
3.95638
-2.04037
1.26917
-3.5757
0.380685
2.48685
3.51248
-6.57539
-0.0605261
-4.78165
-3.92932
7.9366
5.61158
11.6462
1.23951
9.11545
-1.17885
10.355
4.13912
4.37546
-3.02666
4.5185
1.01884
4.51322
-0.877423
2.8359
1.75665
1.77499
0.790226
2.31782
1.38154
3.21086
0.122728
-2.05121
4.62944
-8.64763
-0.993529
-8.0624
1.12773
5.82241
-4.69468
3.07821
-0.931675
1.03784
0.0626413
-1.55727
1.49463
-2.79156
-1.99386
-0.391848
-1.65133
2.35087
1.85879
-1.95902
-0.83254
0.379677
-3.92273
3.09684
-3.10868
-0.350493
6.0627
-2.78093
0.304296
-1.08545
-2.26479
-2.81567
2.73281
6.17578
0.29226
3.11309
5.19589
3.10149
0.234538
3.88339
-5.65492
-3.58431
-5.86696
-0.359883
4.38663
1.71433
7.93956
5.74687
4.80444
-1.81622
-9.9827
6.52604
-2.00754
5.21693
-1.20135
-4.82209
4.99791
2.30657
-5.61375
0.00984567
-4.81225
-6.81979
-0.557464
8.26664
-9.63152
8.59653
5.77672
1.35511
-4.41073
-0.727752
4.23592
0.139536
10.4945
-1.17898
-6.72751
7.9065
-4.64343
3.6499
0.765947
2.74299
2.26058
1.3289
-5.39861
-10.0933
-1.97628
-1.53062
-4.3501
0.50437
-2.36316
6.27223
-2.62233
3.93273
5.28417
6.32201
-2.14257
-4.17595
6.45948
-2.52675
3.79526
)
;

boundaryField
{
    wall-4
    {
        type            calculated;
        value           uniform 0;
    }
    velocity-inlet-5
    {
        type            calculated;
        value           uniform -3.75095;
    }
    velocity-inlet-6
    {
        type            calculated;
        value           uniform -5.62643;
    }
    pressure-outlet-7
    {
        type            calculated;
        value           nonuniform List<scalar> 8(3.11552 7.67134 4.28553 9.7703 7.50456 5.22609 5.92159 9.01841);
    }
    wall-8
    {
        type            calculated;
        value           uniform 0;
    }
    frontAndBackPlanes
    {
        type            empty;
        value           nonuniform 0();
    }
}


// ************************************************************************* //
