/*--------------------------------*- C++ -*----------------------------------*\
| =========                 |                                                 |
| \\      /  F ield         | OpenFOAM: The Open Source CFD Toolbox           |
|  \\    /   O peration     | Version:  4.0                                   |
|   \\  /    A nd           | Web:      www.OpenFOAM.org                      |
|    \\/     M anipulation  |                                                 |
\*---------------------------------------------------------------------------*/
FoamFile
{
    version     2.0;
    format      ascii;
    class       volVectorField;
    location    "43";
    object      U;
}
// * * * * * * * * * * * * * * * * * * * * * * * * * * * * * * * * * * * * * //

dimensions      [0 1 -1 0 0 0 0];

internalField   nonuniform List<vector> 
918
(
(0.98509 -0.000551149 0)
(0.0047945 2.96625 0)
(0.0091039 0.82426 0)
(0.979828 0.00240833 0)
(-0.0111407 2.0375 1.66066e-20)
(-0.00704863 2.94891 -1.10899e-18)
(0.819494 1.17005 1.73172e-19)
(0.254354 0.128337 -6.50778e-21)
(0.999905 -0.000301182 0)
(0.0505126 0.83753 0)
(0.0130878 0.657254 0)
(0.731626 -0.0140725 0)
(0.0114741 2.9302 0)
(0.00291746 2.79502 0)
(-0.0210818 3.15333 3.34075e-19)
(-0.0229914 1.88174 -2.12569e-21)
(0.321612 0.0362623 4.25663e-19)
(0.20184 1.19474 1.21301e-19)
(0.961975 0.00388092 0)
(-0.00258877 0.596583 0)
(0.0521983 0.161009 -3.09641e-19)
(1.00217 -0.00520047 0)
(1.00076 -0.0101518 0)
(0.975977 -0.00653156 0)
(0.580576 -0.0273295 0)
(0.0182629 2.63875 0)
(-0.01491 2.91016 3.90954e-19)
(0.0117213 0.904615 0)
(0.00824096 1.14643 0)
(0.00689648 0.882717 0)
(-0.0102779 2.61423 0)
(0.00237286 2.09879 -1.29292e-20)
(-0.0104054 1.85545 0)
(-0.0204634 2.98751 -3.99635e-23)
(-0.0169834 3.0054 8.8095e-19)
(0.00201357 3.00016 0)
(0.870748 -0.00883548 0)
(0.438262 0.973737 8.27842e-20)
(0.790683 1.18907 -1.81413e-19)
(0.935944 1.02456 2.04668e-19)
(0.662647 1.28613 -3.96248e-20)
(0.668022 1.27056 2.31745e-19)
(0.295061 0.202215 6.34531e-21)
(0.266992 0.101359 0)
(1.12763 0.568505 0)
(0.265156 0.192106 2.8998e-20)
(0.224584 0.128678 -3.01091e-20)
(0.919577 -0.00725223 0)
(1.00028 0.000156876 0)
(0.999916 0.00034328 0)
(1.00351 -0.0076734 0)
(1.00096 -0.000945437 0)
(1.00019 2.33857e-05 0)
(0.0627797 1.80257 -3.38592e-19)
(0.0237106 1.01914 0)
(0.0816176 0.900417 0)
(0.0106627 0.970775 0)
(0.0305157 0.774847 0)
(0.0153736 1.99301 0)
(0.0106413 0.866734 0)
(0.0121691 0.675089 0)
(0.016502 0.849775 0)
(0.0171466 0.634448 0)
(0.838698 -0.0145421 0)
(0.847069 0.0285889 0)
(0.766114 -0.00374158 0)
(0.81823 0.0373472 0)
(0.700974 -0.0133344 0)
(0.0153237 3.00067 4.03176e-19)
(0.0117025 3.00834 0)
(0.00651914 3.00254 0)
(0.0141216 2.99719 4.53243e-24)
(0.00836612 2.95854 -6.09392e-19)
(0.0151944 2.98192 0)
(0.0112062 2.90367 0)
(0.0252602 2.93064 8.97719e-25)
(0.00508202 2.82483 0)
(0.0309248 2.91616 0)
(-0.00471162 2.74481 0)
(0.302926 3.54507 0)
(-0.146212 3.62196 0)
(0.134253 3.24565 -3.08366e-19)
(-0.0101048 2.98526 0)
(-0.0183983 2.00865 0)
(-0.00724801 2.15426 2.09615e-21)
(-0.0155997 1.89032 -8.45585e-21)
(0.425334 0.137231 -1.47298e-19)
(0.320805 0.0277038 -1.42222e-19)
(0.407747 0.152311 -4.4346e-19)
(0.304822 0.0522393 -2.92854e-19)
(0.190883 0.953897 0)
(0.222493 1.33065 -1.4093e-19)
(0.372704 1.2821 2.39302e-19)
(0.987353 0.00823667 0)
(0.94128 0.00544888 0)
(1.00031 0.000430517 0)
(1.00326 0.00949542 0)
(1.00287 0.00785181 -1.14621e-18)
(0.991773 0.00988928 8.75216e-19)
(-0.00531704 0.810981 0)
(0.00470974 0.595474 0)
(-0.0144923 0.951745 0)
(0.00320327 0.819457 0)
(-0.00536765 0.581801 0)
(0.0912199 0.166587 9.59449e-20)
(0.147448 0.144945 0)
(0.993362 -0.00824953 0)
(0.954485 -0.00615427 0)
(0.764151 0.0446286 0)
(0.700861 0.0562378 0)
(0.662998 -0.0231946 0)
(0.963273 -0.00492116 0)
(0.613723 0.0803376 0)
(0.441336 0.00210267 6.31865e-19)
(-0.0369023 2.86403 2.90842e-19)
(0.04212 2.90887 0)
(0.0541709 2.88514 0)
(-0.00420002 2.69885 0)
(-0.013754 2.98512 3.69557e-19)
(-0.0181033 2.89507 0)
(-0.0158404 2.98801 -1.14891e-18)
(-0.0132301 2.92533 3.9457e-19)
(0.0265209 1.35204 0)
(0.0421454 1.39295 0)
(-0.00541433 2.1152 7.42406e-23)
(-0.00378917 2.07281 0)
(-0.0242218 1.86852 0)
(0.9381 -0.00762775 0)
(0.85708 -0.00815531 0)
(0.862663 0.00573528 0)
(0.9492 -0.00788264 0)
(0.883674 -0.00733844 0)
(0.547162 1.16813 -1.05393e-19)
(0.596715 1.20704 0)
(0.405797 0.926759 1.51996e-20)
(0.345199 0.780492 0)
(0.899447 1.06224 -5.49304e-20)
(1.00629 0.867604 1.10959e-19)
(0.36067 1.36973 0)
(0.520444 1.34939 0)
(0.526345 1.29971 0)
(0.122781 0.209702 -1.2776e-19)
(0.330368 0.19715 0)
(0.294698 0.0897064 8.28181e-20)
(0.983267 0.922534 0)
(1.05585 0.77794 0)
(1.07647 0.718719 -8.52072e-20)
(1.10834 0.623645 0)
(1.15732 0.409381 2.36155e-20)
(0.957645 -0.00853885 0)
(0.962361 -0.0102714 0)
(0.901978 -0.00736138 0)
(0.984348 -0.00918303 0)
(0.974836 -0.00934217 0)
(0.937444 -0.00598042 0)
(1.00017 0.00214964 0)
(1.00086 0.00142785 0)
(0.999869 0.000910069 0)
(0.0281066 2.06391 1.85773e-19)
(0.0982303 1.7537 0)
(0.0140555 2.17354 2.92264e-19)
(0.0436106 1.85783 -2.46606e-19)
(0.0986182 1.21263 -9.89365e-20)
(0.0422805 1.09385 0)
(0.119498 1.0432 0)
(0.00411725 0.928128 0)
(0.0118212 0.727181 0)
(-0.00418586 2.23038 -5.25111e-22)
(0.0231657 1.99782 0)
(-0.00241721 2.23415 -2.41231e-20)
(0.0162174 1.99814 4.33946e-20)
(0.0060503 0.903795 0)
(0.0103656 0.882058 0)
(0.00559186 0.698721 0)
(0.00369701 0.827714 0)
(0.0068644 0.617993 0)
(0.935617 0.00968502 0)
(0.844911 -0.01542 0)
(0.925773 -0.000773145 0)
(0.839675 -0.0120493 0)
(0.810983 0.000513167 0)
(0.900891 0.0199104 0)
(0.877369 0.0240595 0)
(0.78788 -0.00108989 0)
(0.00424254 3.06445 -3.56508e-21)
(0.016967 3.0576 0)
(0.0153811 2.96899 0)
(0.00897968 2.87618 0)
(0.961373 3.98098 0)
(1.30616 3.24434 4.489e-19)
(0.0690208 3.0768 0)
(-0.0230717 2.9079 0)
(0.020442 1.41728 0)
(-0.0240131 1.71816 0)
(0.0108767 1.57221 0)
(-0.0305579 2.56837 -1.58225e-21)
(-0.0124421 2.25943 0)
(-0.0202915 2.40454 0)
(0.0156614 1.9228 -1.38148e-22)
(-0.0067835 2.22735 8.14705e-21)
(-0.00524302 2.18796 8.52674e-21)
(0.000576147 1.89708 0)
(0.457828 0.120018 2.22109e-19)
(0.351673 0.0132736 -2.18173e-19)
(0.271933 1.57409 0)
(0.248809 0.740285 -1.28156e-19)
(0.177558 1.66587 -4.23478e-19)
(0.204282 1.20807 4.2444e-19)
(0.90165 0.00585947 0)
(0.967324 0.0107532 0)
(0.974397 0.0106861 0)
(0.923165 0.00592708 0)
(0.00318578 0.810302 0)
(-0.0127057 0.807623 0)
(0.00292136 0.59874 0)
(0.229277 0.184861 2.67654e-19)
(0.193392 0.16927 -3.17008e-19)
(0.191513 0.136678 0)
(1.08677 0.0839922 1.22009e-20)
(1.06625 0.0380104 0)
(1.00344 0.0390905 0)
(0.899711 -0.00562845 0)
(0.491366 0.102382 0)
(0.536531 0.0878904 -1.01108e-18)
(0.390356 0.0102888 3.78517e-19)
(0.00921179 2.98171 3.09395e-19)
(-0.0324119 2.86747 1.96519e-20)
(0.00175781 3.04961 -7.53591e-21)
(0.020889 3.04318 2.78064e-19)
(-0.0153739 2.99632 1.29449e-20)
(-0.0127438 2.94951 -5.21954e-23)
(-0.0175325 3.0115 -2.37853e-19)
(0.0141985 3.02306 1.71158e-19)
(0.00669502 3.03666 -2.77708e-19)
(0.932713 -0.00223933 0)
(0.938861 -0.00320548 0)
(0.843854 -0.00762424 0)
(0.956389 0.0115837 0)
(0.942702 0.0129251 0)
(0.881166 0.00543105 0)
(0.917605 0.0161755 0)
(0.926172 0.0147988 0)
(0.838157 0.00289189 0)
(0.760965 1.43366 2.17446e-20)
(0.803639 1.52512 0)
(0.216237 0.353187 3.15356e-20)
(0.251245 0.720372 2.51378e-19)
(0.292793 0.772597 -1.50823e-19)
(0.303449 0.557353 2.93135e-19)
(0.339047 0.8186 6.65275e-19)
(0.138923 0.239615 1.51677e-19)
(0.379854 0.174281 3.10188e-19)
(0.358695 0.189285 8.08498e-20)
(0.305029 0.0669106 1.5462e-19)
(1.14949 0.465554 9.71728e-21)
(1.16451 0.26522 7.65007e-21)
(0.00769309 2.22439 1.13924e-19)
(0.0422669 1.92743 0)
(0.965044 0.0303799 0)
(0.938795 0.0124681 0)
(0.865621 -0.0178654 0)
(0.0110882 3.07407 0)
(0.02041 2.94395 5.0643e-19)
(0.0171704 2.95613 0)
(0.00679299 2.85059 -5.04715e-19)
(0.00584983 3.09128 1.19789e-19)
(0.00590539 3.08226 0)
(0.888637 1.82826 -6.79564e-20)
(1.27127 2.37782 1.15781e-19)
(0.868769 1.93185 -4.74442e-19)
(0.0202755 2.98136 -2.69469e-19)
(0.036111 3.00213 0)
(-0.0320397 2.88056 0)
(-0.00714654 2.21 -6.35758e-21)
(-0.00850248 2.23306 -1.72078e-20)
(0.0145098 1.95962 -3.77044e-21)
(0.278896 1.39043 4.18415e-19)
(0.20284 0.536847 -2.84826e-19)
(0.0536759 1.99178 3.19287e-19)
(0.153421 1.88457 -3.83388e-19)
(0.149352 1.48355 4.06923e-20)
(0.00275895 3.11779 -7.44465e-19)
(0.01673 3.11772 8.37655e-19)
(-0.00969822 2.98061 3.40342e-19)
(-0.00357693 2.97758 -3.22869e-19)
(-0.0217519 2.88202 -3.46815e-19)
(0.00764374 3.09829 -8.92467e-19)
(0.000914304 3.10659 8.95878e-19)
(0.293667 0.730806 0)
(0.260827 0.729783 -5.20548e-19)
(0.111532 0.249366 2.31868e-19)
(0.355644 0.940329 4.52435e-19)
(0.185575 0.27953 -6.9797e-19)
(1.16555 0.174075 3.23409e-20)
(1.16596 0.31399 0)
(1.15132 0.125211 -9.4806e-21)
(-0.00215023 2.24225 -8.02257e-22)
(0.000903852 2.23505 0)
(0.0267758 1.96564 0)
(0.352083 1.29479 -1.49716e-19)
(0.378844 1.13514 -3.25824e-19)
(0.189396 0.371871 5.79222e-19)
(1.00554 -0.0111768 0)
(1.00751 -0.00743658 2.12877e-19)
(0.0242917 1.3252 0)
(-0.00119334 1.29138 0)
(1.00198 0.00344913 7.98623e-22)
(1.0038 0.0100403 4.30673e-19)
(-0.017464 2.5522 2.08165e-21)
(-0.0254453 2.5938 0)
(0.0337142 3.17352 1.91113e-19)
(0.386716 3.47863 0)
(1.17298 0.637792 -3.01205e-20)
(1.01322 0.0135935 -7.6667e-22)
(1.02126 -0.0106804 0)
(1.00176 0.000113481 2.66219e-23)
(0.103589 1.35282 0)
(0.153328 2.57025 0)
(0.0167951 1.293 0)
(0.00313926 2.62655 2.53376e-20)
(-0.0193155 2.58677 1.21669e-20)
(1.00174 0.0290324 9.87949e-22)
(1.06199 0.0032441 0)
(1.0933 0.0220775 0)
(-0.0211762 1.75055 0)
(-0.0244911 2.59312 0)
(0.000892591 1.28225 0)
(0.307867 1.46602 -6.21722e-20)
(1.01124 -0.00988671 0)
(1.00939 -0.0153633 0)
(1.00241 0.000638573 2.70381e-19)
(1.00538 -0.00478136 -3.20971e-19)
(1.0012 -0.00105163 0)
(-0.00428167 1.4715 0)
(0.0122865 1.37311 0)
(0.019174 1.43592 0)
(0.000713542 1.27011 0)
(0.00430468 1.24851 0)
(0.000631332 1.22126 0)
(1.03428 -0.00699273 0)
(1.02083 0.0161584 -3.61514e-22)
(0.806984 1.25442 9.0331e-20)
(1.00221 0.000397253 -2.69609e-19)
(1.00402 0.00534373 3.20707e-19)
(1.00118 0.00212968 0)
(1.01342 0.0105657 2.67562e-19)
(1.00855 0.00868509 -3.24062e-19)
(1.00929 0.015682 0)
(-0.0279708 2.62122 0)
(-0.0273391 2.60123 -2.08084e-21)
(-0.0268695 2.61468 1.91015e-21)
(1.22947 0.249415 2.59908e-19)
(1.15624 0.0787298 0)
(0.0436766 3.07369 -4.13177e-19)
(0.0650122 2.85321 -2.94691e-20)
(0.141361 3.19762 6.26046e-19)
(0.138962 3.22827 -8.12039e-20)
(0.133258 3.23481 0)
(0.0200738 3.136 1.09936e-19)
(0.0749558 3.16195 4.0308e-19)
(0.0690301 3.1855 -2.09052e-19)
(0.023306 3.12895 0)
(0.64308 0.284431 0)
(0.563717 0.333345 0)
(1.11781 0.667471 7.29151e-20)
(1.14135 0.798377 -7.28287e-20)
(1.18708 0.553285 0)
(1.23334 0.497015 0)
(1.01633 0.0136672 -5.05267e-19)
(1.01512 0.014821 6.33306e-19)
(1.02515 -0.0101584 0)
(1.02314 -0.0123808 0)
(1.00638 0.00259309 0)
(1.01012 0.00361245 0)
(1.00461 0.0018632 0)
(1.00984 0.00607022 0)
(1.00804 0.0063172 0)
(1.00442 0.00442671 0)
(0.0915023 1.34886 0)
(0.088652 1.31881 0)
(0.122623 1.38522 0)
(0.144283 1.39937 0)
(0.147435 2.59381 0)
(0.187858 2.65794 -1.91243e-19)
(0.100015 2.65098 0)
(0.0911307 2.65228 9.33518e-20)
(0.0437435 2.6825 -7.70925e-20)
(0.0234577 1.30197 0)
(0.0242744 1.23171 0)
(0.0259986 1.31495 0)
(0.0254934 1.25755 0)
(0.00419438 1.97857 -1.19954e-20)
(-0.0188439 2.61503 4.85732e-21)
(-0.00746392 2.66864 2.11276e-20)
(-0.0162056 2.69042 0)
(-0.0235847 2.62198 -2.66995e-20)
(-0.0234741 2.6167 -1.03669e-20)
(0.0155146 1.97863 1.06501e-20)
(-0.00558101 2.40114 -6.28726e-21)
(-0.0116111 2.42235 -2.51133e-20)
(1.0116 0.0367498 5.08241e-19)
(1.0069 0.0170894 -6.32036e-19)
(1.00287 0.0433714 -5.12115e-19)
(0.981708 0.0238934 6.50359e-19)
(1.06315 0.00750403 0)
(1.04848 -0.00897576 0)
(1.0922 0.0312199 0)
(1.07269 0.0116075 0)
(1.07076 0.000653212 0)
(1.13281 0.0815898 0)
(1.10774 0.0421698 0)
(1.11339 0.0278101 0)
(-0.020061 2.44736 -5.41128e-22)
(-0.0160014 2.0127 0)
(-0.0137392 2.22643 0)
(-0.0248584 2.61497 -7.58101e-22)
(-0.0215088 2.62439 -1.3828e-22)
(0.00523932 1.56352 2.07204e-22)
(0.000893323 1.49918 -2.08356e-22)
(-0.00503086 1.38053 0)
(-0.00482146 1.38952 0)
(-0.00543108 1.38578 0)
(0.00450691 1.28351 0)
(0.0113513 1.22748 0)
(0.377412 1.48611 1.00184e-19)
(0.430567 1.4857 5.43579e-20)
(0.593601 2.43821 -1.02285e-19)
(0.403386 2.5355 2.982e-19)
(0.345009 2.06614 3.25754e-20)
(1.02112 -0.00814766 0)
(1.01546 -0.00988071 0)
(1.01497 -0.0160822 0)
(1.00735 -0.00124038 0)
(1.00494 -0.00105491 0)
(1.00771 -0.0046414 0)
(1.00918 -0.00375403 0)
(1.01408 -0.00448211 0)
(1.02148 0.0162941 4.96379e-19)
(1.01818 0.0162109 -6.30455e-19)
(1.0218 0.0182179 -4.96927e-19)
(1.01966 0.0169821 6.23758e-19)
(0.771476 1.30611 0)
(0.711764 1.35667 8.80682e-20)
(0.874908 1.2159 2.98525e-20)
(0.934914 1.15248 -3.9696e-20)
(1.15773 2.60284 1.31051e-19)
(0.807305 0.11358 2.46603e-19)
(1.15208 0.109697 0)
(1.20682 0.192557 -2.08302e-19)
(1.19742 0.143705 -8.82127e-21)
(1.00233 0.147266 0)
(0.156602 2.96197 2.16529e-19)
(0.112385 2.86893 -5.52306e-19)
(0.0279388 2.38094 3.43029e-19)
(0.0959114 -0.0247042 -1.45543e-19)
(0.335523 3.4218 -8.44938e-20)
(0.197697 3.32062 0)
(0.227897 3.35392 1.0996e-19)
(0.254825 3.04203 -7.12611e-19)
(0.35875 3.20225 0)
(0.00544138 3.12081 2.09181e-20)
(0.0157477 3.12925 -2.50046e-19)
(0.0140514 3.12501 3.66711e-19)
(0.0344244 3.14021 0)
(0.0330325 3.14984 0)
(1.19218 2.6417 0)
(0.549734 0.835442 -2.17778e-19)
(1.06354 0.971735 7.83185e-21)
(0.966455 1.07128 0)
(0.823245 0.954823 -5.05361e-20)
(1.05455 0.878868 1.05721e-20)
(0.34704 0.385226 -3.88486e-19)
(0.682406 0.315545 -8.00835e-21)
(0.641997 0.225853 1.76152e-19)
(0.578586 0.380293 1.30048e-20)
(0.493644 0.332068 -5.2491e-19)
(0.655642 0.334877 0)
(0.710567 0.414933 2.97381e-19)
(0.716342 0.412681 0)
(0.613421 0.368917 0)
(0.580876 0.276352 0)
(0.80639 0.606835 1.77883e-19)
(1.2201 0.2797 -2.23822e-19)
(1.22757 0.407448 0)
(1.24772 0.346759 0)
(0.73291 0.188504 2.61786e-19)
(0.855575 0.537959 -1.63185e-19)
(0.751737 0.508356 2.89678e-19)
(0.955284 0.423663 -3.16845e-19)
(1.01999 0.014829 3.37973e-19)
(1.0181 0.0144215 -3.40192e-19)
(1.01591 0.0162142 0)
(1.0359 -0.00626466 0)
(1.02959 -0.00871366 -3.18828e-19)
(1.0275 -0.0126375 3.16304e-19)
(1.02498 0.00991236 0)
(1.02381 0.0133141 0)
(1.0112 0.004004 0)
(1.01431 0.00892396 0)
(1.01475 0.00412024 0)
(1.01386 0.00296241 0)
(0.0600507 1.33119 0)
(0.0608176 1.28692 0)
(0.141906 1.3547 -1.27022e-20)
(0.276845 1.46427 3.19319e-20)
(0.16805 1.43412 6.8105e-20)
(0.20971 1.44512 -1.10946e-19)
(0.165273 1.37803 0)
(0.129648 1.59338 -3.74434e-20)
(0.110109 1.56123 0)
(0.347101 2.0127 -4.7079e-20)
(0.348197 2.35924 2.5869e-19)
(0.19038 1.44697 3.27418e-20)
(0.251326 1.37118 2.82919e-21)
(0.197812 1.36085 -2.27405e-21)
(0.259828 1.31833 -5.59402e-20)
(0.229336 1.57677 0)
(0.258846 1.60653 5.7563e-20)
(0.0314841 2.26403 -1.8298e-20)
(0.0447467 2.67059 0)
(0.063475 2.40208 7.28163e-20)
(0.0591127 2.42505 0)
(0.0717588 2.66368 -1.03875e-19)
(0.0542258 2.69892 0)
(0.0307337 1.40144 -4.28651e-21)
(0.0361034 1.45362 0)
(0.0306653 1.37241 0)
(0.0254006 1.37429 4.82551e-21)
(0.00185272 2.65489 -8.75107e-21)
(0.0312336 2.69811 8.80794e-20)
(0.0134433 2.72342 6.62752e-22)
(0.00648263 1.82605 9.81331e-21)
(-0.00205811 1.67307 4.4763e-21)
(0.0202706 1.28459 0)
(0.0263201 1.21677 0)
(0.0513866 1.56868 7.93972e-21)
(0.0280489 1.43884 6.65821e-21)
(0.0393982 1.5053 -8.13627e-21)
(0.0405369 1.59384 0)
(-0.0266203 2.28441 3.37668e-20)
(-0.0349478 2.56414 -1.55247e-20)
(-0.0101511 2.45704 -6.65126e-22)
(-0.00150743 1.84245 -1.18506e-20)
(-0.0253229 2.50566 -3.88225e-21)
(-0.0196933 2.44938 1.70385e-20)
(1.01972 0.0211143 -3.35638e-19)
(1.01589 0.0267198 3.37659e-19)
(1.01488 0.0165454 0)
(1.01199 0.0703589 4.70033e-19)
(0.990392 0.0600626 -5.28097e-19)
(0.948681 0.0414876 5.9243e-19)
(1.01433 0.104394 -6.2744e-20)
(1.04205 -0.00610438 0)
(1.05031 -0.0019075 3.0564e-19)
(1.03855 -0.0105227 -3.04967e-19)
(1.06976 0.041486 -1.80536e-20)
(1.06355 0.0216561 1.55573e-19)
(1.06341 0.0521639 0)
(1.0529 0.0473327 -5.58111e-20)
(1.03276 0.0402275 0)
(1.02642 0.0369784 0)
(1.02756 0.0135761 0)
(1.0241 0.0161146 0)
(1.03958 0.0318766 1.14709e-19)
(1.03892 0.0257635 -2.53073e-19)
(1.04977 0.0314051 -1.22174e-19)
(1.04888 0.0314513 -1.34322e-19)
(1.06849 0.0615297 2.62496e-19)
(1.09196 0.050451 0)
(1.10283 0.0926375 0)
(-0.0216864 2.28356 5.74308e-21)
(-0.013295 2.02345 -1.17024e-21)
(-0.0202358 2.02296 0)
(-0.0267795 2.45493 -5.97319e-21)
(-0.019499 2.41187 1.65488e-21)
(-0.0298 2.48539 2.40444e-22)
(-0.0211508 2.63091 8.86268e-21)
(-0.0245043 2.57253 -8.17931e-22)
(-0.0196072 2.52239 2.94008e-21)
(-0.0171237 2.62735 -1.68089e-21)
(-0.02334 2.62769 2.78825e-21)
(-0.00146092 1.48088 -6.61898e-22)
(0.0138227 1.6114 8.41236e-22)
(0.358008 1.42735 -4.00693e-20)
(0.357243 1.36963 2.56062e-20)
(0.652746 1.40959 -8.51266e-20)
(0.521769 1.47623 -5.26729e-20)
(0.585633 1.44362 0)
(0.582382 2.4162 9.64498e-20)
(0.654697 2.41418 1.46685e-19)
(0.403783 2.51253 3.71014e-20)
(0.40585 2.54651 -2.6332e-19)
(0.519503 2.49509 2.56993e-19)
(0.543153 2.45428 0)
(0.479653 2.50955 -2.41033e-19)
(0.237219 2.58482 5.04087e-19)
(0.34713 2.56513 -3.43254e-20)
(0.280976 2.64807 -6.86084e-19)
(0.932856 2.37739 3.26541e-19)
(0.827101 2.38481 0)
(1.01091 0.00026499 1.08955e-20)
(1.01524 -0.00547468 -9.02707e-21)
(1.01757 -0.00347115 -1.62637e-19)
(1.01485 -0.000916799 1.64418e-19)
(1.01219 0.00100588 0)
(0.636836 1.27666 0)
(0.648993 1.17223 0)
(0.75174 1.07835 0)
(0.648529 1.13052 0)
(1.18585 2.6131 2.68728e-20)
(1.07305 2.36192 0)
(0.852515 2.17831 1.67605e-21)
(0.821852 2.44551 0)
(0.922303 2.53755 -1.77696e-19)
(0.9598 2.49715 1.15436e-19)
(0.817058 0.172594 0)
(0.781134 0.141764 6.68975e-20)
(0.922829 0.142454 3.93569e-19)
(0.837083 0.144804 -1.45624e-19)
(0.808574 0.0858423 -4.53193e-19)
(1.0722 0.230286 -3.92923e-19)
(0.99519 0.295426 -6.42841e-21)
(0.925085 0.283047 3.63246e-19)
(1.00243 0.220543 3.04932e-19)
(0.953382 0.185325 -5.2295e-19)
(0.921195 0.18729 6.51633e-20)
(0.953153 0.24525 -1.39525e-19)
(0.934647 0.213405 0)
(0.992088 0.180603 2.57957e-19)
(1.04448 0.184166 0)
(1.04069 0.213414 0)
(1.09962 0.117614 1.23277e-19)
(1.07343 0.174013 -5.97604e-21)
(1.06969 0.230701 -6.62721e-20)
(1.10221 0.200843 0)
(1.0221 0.045044 2.60378e-19)
(1.04248 0.0573648 3.22082e-19)
(1.03458 0.0438609 -2.55656e-19)
(1.04348 0.0643057 -2.16387e-19)
(1.01802 0.0722247 -3.31555e-19)
(0.988584 0.152462 0)
(1.002 0.102751 0)
(0.968644 0.0675254 -2.1051e-19)
(0.915126 0.0879729 8.21627e-20)
(1.03864 0.100008 2.99796e-19)
(1.06852 0.117007 -3.5376e-19)
(1.07549 0.148983 3.12811e-19)
(1.02853 0.143218 0)
(1.07232 0.10699 0)
(1.05577 0.0857707 -1.44276e-19)
(1.04551 0.0937372 -2.45092e-19)
(0.577841 1.07971 6.20474e-20)
(0.622893 1.39106 -2.6199e-20)
(1.16068 2.73816 -1.00229e-19)
(1.23801 3.07365 -4.95956e-22)
(1.24993 2.7105 -6.63711e-20)
(1.28053 2.70821 -3.00259e-20)
(1.16697 2.35219 8.23414e-21)
(1.22642 2.96779 -5.84405e-20)
(1.24782 2.93688 1.26358e-19)
(1.24371 3.22833 -7.8497e-20)
(1.36594 2.9649 9.02315e-20)
(1.30327 2.88916 0)
(0.556103 0.840301 -2.076e-20)
(0.112338 1.24241 2.52982e-19)
(0.55693 0.436463 2.54333e-19)
(0.366248 0.17676 2.74924e-19)
(0.518717 0.378888 2.9755e-19)
(0.555346 0.46213 -4.9033e-19)
(0.547088 0.47826 4.01713e-19)
(0.49054 0.388878 -1.51654e-19)
(0.404226 0.316169 3.41011e-19)
(0.735894 0.250823 -1.49645e-19)
(0.699218 0.276265 0)
(0.674572 0.199179 3.40772e-21)
(0.737239 0.509677 1.5618e-19)
(0.712958 0.472254 -5.71372e-19)
(0.611292 0.470361 5.09275e-21)
(0.625497 0.454353 0)
(0.673947 0.729985 1.69707e-19)
(0.846767 0.779315 1.66281e-19)
(0.760007 0.862179 -1.93743e-19)
(0.882835 0.806654 -6.71847e-20)
(0.905995 0.83839 -1.75093e-20)
(0.912107 0.840517 1.79893e-20)
(0.857388 0.636701 -2.96273e-19)
(0.930233 0.706381 6.26085e-20)
(0.982938 0.712198 0)
(0.965793 0.67968 -8.85713e-20)
(1.02305 0.318186 9.15048e-20)
(1.12356 0.289892 1.30745e-19)
(1.0594 0.264928 1.57495e-19)
(1.01591 0.360039 -1.84968e-19)
(1.06095 0.41933 0)
(1.10103 0.405448 0)
(0.919014 0.352142 2.99314e-21)
(0.842388 0.2898 0)
(0.881602 0.287875 1.70028e-19)
(0.91354 0.289828 -3.30829e-21)
(0.945754 0.42412 8.83697e-19)
(0.905728 0.484714 2.31003e-19)
(0.907419 0.448495 -2.45089e-19)
(0.822146 0.431853 2.62904e-19)
(0.807481 0.430594 1.58218e-19)
(0.773407 0.411725 -1.54035e-19)
(1.02736 -0.000347914 2.68748e-19)
(1.01983 -6.629e-05 0)
(1.01843 0.000823974 1.77858e-19)
(1.02144 -0.00209439 -4.0102e-19)
(1.02215 0.00438708 1.95218e-19)
(1.02045 0.0112453 -4.10776e-19)
(1.02144 0.0105526 0)
(1.02102 0.0105448 -8.48657e-20)
(1.0159 0.00779357 2.12575e-19)
(1.01683 0.010321 -1.07544e-19)
(1.01752 0.0096048 7.91782e-20)
(0.0258271 1.30839 0)
(0.0323221 1.34844 0)
(0.0402177 1.30945 0)
(0.0388674 1.26752 0)
(0.065175 1.37423 9.96638e-21)
(0.0740787 1.34381 6.21905e-22)
(0.11638 1.49994 -1.43994e-20)
(0.0900176 1.35559 7.23205e-21)
(0.0329724 1.4443 -1.71574e-20)
(0.0367027 1.43712 1.31964e-20)
(0.0588788 1.35672 -1.31468e-21)
(0.0528231 1.35786 -4.02478e-21)
(0.0445438 1.33374 -6.95504e-22)
(0.0379598 1.35739 -1.62377e-21)
(0.107483 2.37128 -7.85496e-20)
(0.0920444 2.42078 0)
(0.167499 2.06346 4.96187e-20)
(0.112449 1.7069 2.10549e-20)
(0.234426 2.05305 -3.98234e-20)
(0.205193 2.43854 0)
(0.268869 2.39259 -2.55184e-19)
(0.304901 2.39103 1.80454e-19)
(0.2216 2.00623 -1.15973e-19)
(0.150248 2.16705 7.73781e-20)
(0.152414 2.28239 0)
(0.01691 1.87641 -1.85409e-20)
(0.000471445 2.39941 -3.87151e-20)
(0.00598698 2.15226 0)
(0.0125882 2.46008 -5.7059e-21)
(0.0274676 2.30513 1.40106e-20)
(0.0243919 1.3846 3.43996e-23)
(0.0237198 1.37213 1.2818e-21)
(0.0225228 1.37636 -1.79445e-21)
(0.0256341 1.37536 1.13387e-21)
(0.0302911 1.4059 0)
(0.0187562 1.35707 0)
(0.00930912 1.28113 -3.23451e-21)
(0.0144808 1.3485 5.57885e-22)
(0.0171627 1.34948 0)
(0.0186012 1.27558 -2.04611e-21)
(0.0261472 1.2091 4.97144e-21)
(1.03973 0.0106197 0)
(1.04564 0.00713807 -2.84625e-20)
(1.0385 0.0206475 -2.04095e-19)
(1.04791 0.0194689 0)
(1.05147 0.0193161 0)
(1.03651 0.0111074 -2.80465e-21)
(1.03122 0.0106912 3.28801e-19)
(1.03162 0.016268 4.0217e-19)
(1.02564 0.0202809 0)
(1.02315 0.0206192 0)
(1.03495 0.0249664 2.04429e-19)
(1.02627 0.0259814 0)
(1.02452 0.0258414 0)
(-0.0218713 2.023 0)
(0.0192102 1.65155 -3.92471e-21)
(0.00272874 1.76214 -1.50409e-20)
(0.0096051 1.35965 0)
(-0.01427 1.54495 -1.05662e-22)
(0.0109446 1.44661 -4.40116e-23)
(0.00796338 1.36776 0)
(0.37904 1.67404 0)
(0.362661 1.2917 -4.84011e-20)
(0.306963 1.33983 0)
(0.416283 1.28895 2.53683e-20)
(0.466272 1.45546 0)
(0.445776 1.40064 4.25617e-22)
(1.03093 2.68374 -6.95563e-21)
(0.958351 2.41198 -3.99076e-19)
(0.907316 2.19412 4.57096e-19)
(0.840225 2.37723 1.12876e-19)
(0.8405 2.49845 0)
(0.912763 2.4918 0)
(0.915383 2.37225 0)
(0.894831 2.35859 -4.12967e-19)
(0.684363 2.46133 -1.73684e-19)
(0.795693 2.45717 -4.19896e-20)
(0.808145 2.42692 3.32484e-20)
(0.686134 2.39069 0)
(0.792296 2.38993 0)
(0.747375 2.39976 -1.5786e-19)
(0.764937 2.49356 0)
(0.619571 1.10615 0)
(0.486342 0.920663 -2.10271e-19)
(0.569836 0.947806 -1.36013e-20)
(0.526623 1.05272 0)
(0.529746 1.00334 3.18306e-19)
(0.782651 0.888432 -5.61801e-20)
(0.785424 1.0122 0)
(0.759028 0.960433 8.39891e-20)
(0.643755 1.04291 0)
(0.652698 0.946822 0)
(1.16652 2.75399 -1.06102e-19)
(1.14342 2.81932 -4.91483e-20)
(0.939035 2.33256 5.81524e-20)
(0.899859 2.31201 -3.97157e-20)
(1.12952 2.72522 0)
(1.08188 2.69369 5.00552e-20)
(1.08865 2.47832 -1.399e-19)
(0.980205 2.23361 -1.39113e-20)
(0.49485 1.35259 0)
(0.505063 1.07211 -5.43802e-20)
(0.563405 1.14884 0)
(0.862503 0.22799 0)
(0.785864 0.185366 0)
(0.724994 0.143881 0)
(0.858925 0.232255 -2.68723e-19)
(0.75611 0.218953 1.57452e-19)
(0.930666 0.0744595 -1.70705e-19)
(0.946625 0.12121 0)
(0.924989 0.133509 7.30382e-20)
(0.864641 0.109466 2.94183e-19)
(0.835551 0.0701216 -1.84521e-19)
(1.17346 3.36331 -3.06081e-19)
(1.22505 3.28572 0)
(1.1387 3.38133 -6.01142e-19)
(0.637848 3.53953 5.25594e-19)
(0.849983 3.10682 1.93868e-20)
(0.515163 0.846612 2.54677e-19)
(0.420863 0.841518 0)
(0.322897 0.486157 -6.29204e-20)
(0.459814 0.674814 3.56505e-19)
(0.55161 0.449966 -8.69546e-20)
(0.52148 0.507057 9.85587e-20)
(0.660161 0.523179 2.14238e-19)
(0.695424 0.540674 0)
(0.653258 0.601484 0)
(0.608421 0.540312 0)
(0.985827 0.596489 4.4413e-20)
(0.909011 0.533486 -2.23047e-19)
(0.932119 0.564993 1.73484e-19)
(0.965677 0.50569 -1.73449e-19)
(1.07694 0.478624 0)
(1.06716 0.560738 -4.40461e-20)
(0.846305 0.388499 -3.58745e-19)
(0.850587 0.377372 -4.35789e-19)
(0.795597 0.373279 2.78246e-19)
(0.794339 0.349425 -2.83757e-19)
(0.843107 0.310849 -2.22557e-19)
(0.792179 0.309365 2.73772e-19)
(1.02671 0.00565794 -2.08652e-19)
(1.02634 0.00607832 4.32262e-19)
(1.02919 -0.00056478 2.60443e-19)
(1.03343 0.000892686 -3.15584e-19)
(1.03306 0.00773575 0)
(1.02996 0.0085862 -5.17006e-19)
(0.0633849 1.63847 1.18157e-20)
(0.0453762 1.56989 0)
(0.087779 1.68511 8.41474e-20)
(0.0956292 1.66699 -7.51477e-20)
(0.0908128 1.51751 2.68959e-20)
(0.0894437 1.50465 0)
(0.0191738 1.67262 0)
(0.00148847 1.4734 -1.63984e-21)
(0.00677713 1.4176 1.47333e-21)
(-0.00227462 1.53937 2.87543e-21)
(0.00854733 1.88101 -2.78031e-21)
(-0.0103444 1.93201 3.14639e-21)
(0.495039 1.37036 -1.18047e-19)
(0.489733 1.37675 1.27156e-19)
(0.442211 1.2875 -2.22725e-20)
(0.430887 1.28758 3.67044e-21)
(0.6243 1.29708 0)
(0.543235 1.38539 3.35024e-20)
(0.559835 1.39663 -3.25092e-20)
(0.453274 1.27375 2.16087e-20)
(0.508934 1.23105 0)
(0.554202 1.1935 0)
(0.645779 2.41893 2.60669e-19)
(0.669486 2.46145 5.32033e-19)
(0.708463 2.47547 -3.65013e-19)
(0.60695 2.45643 -8.63874e-20)
(0.561184 2.54281 1.23813e-19)
(0.522306 2.52407 -3.19922e-19)
(0.973958 2.37787 -2.54509e-19)
(1.01022 2.3881 0)
(0.917373 2.17321 -2.96946e-19)
(1.05219 2.6743 0)
(1.05527 2.66105 0)
(0.604084 2.25136 -7.28099e-20)
(1.0294 3.1563 4.48349e-20)
(0.896881 3.01606 1.23959e-20)
(0.284243 0.899434 0)
(0.321304 0.73886 -1.34065e-19)
(0.464029 0.709091 -1.34389e-19)
(0.398806 1.97853 0)
(0.478638 2.78555 -1.37248e-20)
(0.433668 2.56899 0)
(0.689269 0.6676 -3.58042e-19)
(0.776726 0.681772 4.81371e-19)
(0.803895 0.616175 -4.7251e-19)
(0.677753 0.632339 -4.62522e-20)
(0.72828 0.588292 -1.89675e-19)
(1.01486 2.76213 -3.38616e-20)
(1.04807 2.8322 -5.27884e-20)
(0.65516 2.13335 2.97483e-19)
(0.583685 1.71215 -2.05795e-19)
(0.711438 1.90491 -1.77488e-19)
(0.997201 2.46683 -4.58833e-20)
(0.998237 2.45412 1.10148e-19)
(0.667698 1.8705 9.95869e-21)
(0.461237 1.33457 6.41385e-20)
)
;

boundaryField
{
    wall-4
    {
        type            noSlip;
    }
    velocity-inlet-5
    {
        type            fixedValue;
        value           uniform (1 0 0);
    }
    velocity-inlet-6
    {
        type            fixedValue;
        value           uniform (0 3 0);
    }
    pressure-outlet-7
    {
        type            zeroGradient;
    }
    wall-8
    {
        type            noSlip;
    }
    frontAndBackPlanes
    {
        type            empty;
    }
}


// ************************************************************************* //
