/*--------------------------------*- C++ -*----------------------------------*\
| =========                 |                                                 |
| \\      /  F ield         | OpenFOAM: The Open Source CFD Toolbox           |
|  \\    /   O peration     | Version:  4.0                                   |
|   \\  /    A nd           | Web:      www.OpenFOAM.org                      |
|    \\/     M anipulation  |                                                 |
\*---------------------------------------------------------------------------*/
FoamFile
{
    version     2.0;
    format      ascii;
    class       volScalarField;
    location    "49";
    object      p;
}
// * * * * * * * * * * * * * * * * * * * * * * * * * * * * * * * * * * * * * //

dimensions      [0 2 -2 0 0 0 0];

internalField   nonuniform List<scalar> 
918
(
0.562105
1.20263
0.00164423
0.561492
-0.0113737
1.16965
-0.495781
0.701477
0.542272
-0.0939312
-0.0263508
0.539414
1.03022
0.795843
-1.11798
-0.00121871
0.660228
-0.37516
0.541338
-0.0401986
0.731785
0.54884
0.551868
0.542451
0.609004
0.773277
0.911
0.0196471
0.00674173
0.00327435
-0.0103518
-0.0364133
-0.0291502
1.05331
1.10438
1.12706
0.510318
0.339019
-0.36318
-0.43144
-0.423716
-0.539657
0.69625
0.695084
-0.189361
0.704263
0.709172
0.529387
0.541639
0.542546
0.543599
0.542564
0.543954
0.416228
-0.0968533
-0.129569
-0.0733728
-0.0648763
0.070662
-0.0279454
-0.029888
-0.025107
-0.0244696
0.460196
0.534553
0.531607
0.544644
0.553844
1.14218
1.11411
1.14025
1.05385
1.07038
1.00823
0.980815
0.816939
0.838429
0.780156
0.768499
-1.55319
-2.51092
-0.524781
-0.27252
-0.0103009
0.00352358
0.010834
0.654991
0.655082
0.661704
0.668481
1.08895
-0.374164
-0.473766
0.541471
0.540272
0.548633
0.549329
0.545345
0.544437
-0.0329002
-0.0301798
-0.037983
-0.0389864
-0.0365156
0.720832
0.719308
0.542987
0.539999
0.560599
0.58161
0.573546
0.286966
0.612028
0.625683
0.60103
0.765486
0.758802
0.768017
0.884588
0.847507
0.948272
0.971557
0.0161819
0.00069054
-0.00949342
-0.01604
-0.0149784
0.506199
0.498828
0.525624
0.513705
0.516179
0.254867
0.120213
0.424736
0.449987
-0.279385
-0.341066
-0.421826
-0.449627
-0.560237
0.614213
0.687694
0.685134
-0.203913
-0.130625
-0.26123
-0.0573285
-0.118469
0.519722
0.526681
0.521708
0.537187
0.53167
0.533626
0.545893
0.542971
0.544527
0.478658
0.602284
0.342632
0.308177
-0.236017
-0.147086
-0.237294
-0.0528785
-0.0484701
0.0843254
0.10952
0.0575711
0.0460306
-0.0415539
-0.0331782
-0.0372864
-0.0232277
-0.0256795
0.45309
0.442101
0.472759
0.480211
0.524014
0.525276
0.528889
0.527203
0.931702
0.954028
0.961515
0.935362
-3.50725
-6.30165
0.0547221
0.192333
-0.00592558
-0.0093941
0.00165067
-0.00380747
0.00125955
-0.00112079
0.0088779
0.00657243
0.0097093
0.0121228
0.647334
0.647519
1.00854
1.01151
0.987537
0.93902
0.529615
0.53171
0.53724
0.533107
-0.024515
-0.0273427
-0.0248141
0.711112
0.71663
0.714838
0.249219
0.161043
0.337195
0.365749
0.64013
0.628813
0.638702
0.66154
0.697083
0.978958
0.997123
0.995443
1.00379
1.04788
1.06434
1.02957
0.485932
0.495762
0.490794
0.528792
0.526527
0.527451
0.523075
0.524498
0.522358
-0.0312496
-0.413624
0.499398
0.517584
0.499504
0.504471
0.69355
0.770685
0.66988
0.678804
0.67633
0.0106747
-0.0472271
0.264252
0.230939
0.393585
0.429443
0.408694
0.902768
0.863363
0.91334
0.886836
0.848192
0.87408
-0.365268
-1.87267
-0.987569
0.543728
0.357188
0.444545
0.0276906
0.0101529
0.015627
1.00475
1.08055
0.658229
0.829618
0.834894
0.734986
0.765878
0.820443
0.745622
0.780674
0.816018
0.798087
0.571147
0.512413
0.525297
0.839964
0.895992
0.132497
0.0736748
0.0294714
0.128107
0.184196
0.158817
1.04209
0.951069
1.02235
0.539752
0.540461
-2.44755e-05
-0.00952142
0.544654
0.544703
-0.00805341
0.00340685
0.428071
-0.82681
0.115216
0.533184
0.523252
0.540286
-0.0773249
0.369241
-0.0277457
0.0655753
0.00941144
0.5369
0.471088
0.430876
0.00590768
-0.0100603
-0.0345464
-0.206079
0.537424
0.53573
0.539755
0.540717
0.541386
-0.0117854
-0.00749926
-0.00613997
-0.0334248
-0.029091
-0.0393695
0.504519
0.522835
-0.16066
0.539895
0.54202
0.541844
0.535064
0.540711
0.53895
-0.00214954
-0.00934293
-0.0113494
0.231467
0.35947
0.670589
0.760024
0.641352
0.415322
0.178445
0.572138
0.636469
0.540936
0.695953
0.683647
0.6991
0.180529
0.0307326
0.189148
0.13103
0.531042
0.529729
0.521509
0.518526
0.53515
0.533254
0.53782
0.534814
0.537766
0.539158
-0.035183
-0.0588368
-0.0727141
-0.138768
0.32463
0.58608
0.26606
0.296584
0.157962
-0.0214685
-0.0229736
-0.0276302
-0.0337519
0.0199034
-0.00552679
0.0607149
0.0610927
0.0330355
0.00611549
0.0117895
-7.61854e-05
0.00395763
0.530029
0.528425
0.534825
0.543937
0.480582
0.484329
0.449745
0.470175
0.455619
0.395397
0.430149
0.405517
0.00109702
0.0105142
0.0026268
-0.00561451
-0.00157848
-0.0203379
-0.0182869
-0.015749
-0.012134
-0.0181668
-0.0282093
-0.0273018
-0.16548
-0.28044
0.994814
0.922729
0.136748
0.526597
0.533031
0.529809
0.534669
0.537793
0.53862
0.53635
0.532906
0.523261
0.524877
0.521563
0.522307
-0.0933487
-0.232431
-0.0618931
-0.133693
0.149249
0.631371
0.371346
0.308441
0.303292
0.530001
0.934706
0.722846
0.700741
0.716467
-0.33422
0.0593349
-0.26883
0.350201
0.17346
0.669042
0.718638
0.740924
0.688282
0.640832
-0.1004
0.562365
-0.0582082
-0.0085169
0.191389
0.0723886
0.699367
0.667843
0.671666
0.688849
0.706189
0.674006
0.657437
0.651987
0.68499
0.688654
0.5009
0.262726
0.215419
0.176546
0.651727
0.537339
0.591595
0.506219
0.526136
0.528814
0.527426
0.509293
0.516801
0.512384
0.51867
0.522057
0.530864
0.53128
0.526615
0.528772
-0.0394306
-0.0424269
-0.0173476
-0.127097
-0.117574
-0.178885
-0.0533998
0.0845516
0.0469567
0.243301
0.348981
0.0611319
-0.0509349
-0.0230075
0.0150486
0.187456
0.213307
0.0888667
0.177595
0.165833
0.149373
0.250558
0.255516
-0.0083508
-0.0125446
-0.0151231
-0.0170252
0.0365672
0.106786
0.11671
0.01415
0.00858992
-0.0197613
-0.019097
-0.00582658
-0.0102044
-0.00664356
0.0276532
-0.0394919
-0.00686796
0.0087655
0.0163878
0.0129934
0.00806974
0.522441
0.524696
0.524362
0.531903
0.550045
0.56625
0.522939
0.502522
0.493426
0.496416
0.469733
0.479903
0.475606
0.489157
0.510132
0.519367
0.516824
0.519553
0.502272
0.503947
0.490627
0.494286
0.469534
0.450719
0.439042
-0.0307098
0.00688529
0.000410338
-0.0285838
0.000597286
-0.0119761
0.00546774
0.0235567
0.00840039
0.00471386
-0.0047627
-0.0136143
-0.0119675
-0.067751
0.0169356
-0.176285
-0.213675
-0.283572
0.896268
1.01968
0.819168
0.592729
0.609551
0.852066
0.937928
0.55546
0.744063
0.768156
0.589221
0.854794
0.531415
0.531024
0.528626
0.528102
0.529323
-0.00157275
0.101588
0.104551
0.164216
0.28105
0.394046
0.319221
0.194274
0.325939
0.329317
0.623789
0.636762
0.592271
0.615881
0.616285
0.434504
0.510197
0.562784
0.519651
0.570913
0.59181
0.548072
0.580186
0.530343
0.485193
0.481515
0.431578
0.451651
0.428378
0.410732
0.521474
0.498798
0.509329
0.499673
0.519186
0.543426
0.540275
0.572812
0.583803
0.503434
0.459674
0.469091
0.499437
0.460019
0.474911
0.491123
0.234673
0.135315
0.218771
-0.0696543
0.00622824
-0.00811706
-0.0556731
-0.00721576
0.278027
-0.416401
-0.39199
-1.02232
0.50508
0.965703
0.648837
0.622111
0.703087
0.684698
0.689735
0.707769
0.711943
0.642389
0.658989
0.661269
0.623492
0.647102
0.667843
0.664961
0.532186
0.397237
0.39312
0.344812
0.215442
0.253221
0.453525
0.375825
0.300811
0.301988
0.468074
0.355194
0.424427
0.460566
0.391799
0.345549
0.549749
0.614777
0.606179
0.580407
0.497105
0.511006
0.535176
0.570622
0.596713
0.627988
0.51825
0.524097
0.525345
0.522842
0.520089
0.523081
0.523264
0.525798
0.526523
0.529484
0.528507
-0.0283543
-0.016714
-0.0300845
-0.0378111
-0.00683038
-0.0109406
0.0327232
0.0192367
0.0039823
0.0101422
-0.0163086
-0.0204576
-0.015553
-0.00638052
0.110761
0.123271
0.107175
0.0678054
0.256602
0.387292
0.459775
0.336221
0.229243
0.253023
0.274418
0.003697
0.0311358
0.0184561
0.0567628
0.0480523
-0.0156523
-0.0191195
-0.018014
-0.00999045
-0.000803947
-0.019459
-0.0227261
-0.0135009
-0.018086
-0.0181096
-0.0226885
0.504737
0.498288
0.499921
0.493858
0.49259
0.506719
0.510939
0.512889
0.518285
0.520476
0.51075
0.516362
0.520073
0.0059209
-0.0190319
-0.0222672
-0.0091417
-0.0143165
-0.0137869
-0.0146235
0.12605
0.0545775
0.0590744
0.0132454
-0.116057
-0.0584434
0.493418
0.49321
0.486658
0.722895
0.572744
0.492978
0.590105
0.695246
0.277212
0.475843
0.309343
0.892171
0.786616
0.933101
0.545997
0.247235
0.406758
0.455307
0.26461
0.337415
0.33382
0.221063
0.253107
0.287951
0.389562
0.268698
0.244348
0.00174048
0.190711
0.305343
0.286705
0.413854
0.476035
0.266425
0.188018
0.142027
0.611935
0.630284
0.645686
0.618993
0.639788
0.582086
0.570396
0.588685
0.598513
0.593815
-0.74973
-0.456393
-1.40194
-0.719598
-0.266877
0.536045
0.502279
0.773859
0.655458
0.707929
0.692365
0.650044
0.617466
0.636068
0.663654
0.358185
0.4695
0.444453
0.449484
0.350755
0.282181
0.583151
0.577439
0.612256
0.635714
0.604855
0.636039
0.516037
0.515712
0.515277
0.511571
0.509826
0.512125
0.0715245
0.0408349
0.0757109
0.0565967
0.0338932
0.0224469
0.0111018
0.000950722
-0.00602273
-0.00724104
0.00739185
0.0115806
0.171188
0.111116
0.0317979
0.0615441
0.00164857
-0.0664347
-0.084156
0.017278
0.111994
0.102612
0.408132
0.659637
0.479559
0.646853
0.488209
0.543928
0.476115
0.468167
0.494786
0.383842
0.463353
0.242768
-0.26449
-0.172803
0.791982
0.806883
0.589614
0.409121
0.177502
0.360496
0.553567
0.486383
0.52365
0.592864
0.582195
0.0237614
0.0860397
0.359805
0.587165
0.241205
0.232503
0.226572
0.405898
0.326844
)
;

boundaryField
{
    wall-4
    {
        type            zeroGradient;
    }
    velocity-inlet-5
    {
        type            zeroGradient;
    }
    velocity-inlet-6
    {
        type            zeroGradient;
    }
    pressure-outlet-7
    {
        type            fixedValue;
        value           uniform 0;
    }
    wall-8
    {
        type            zeroGradient;
    }
    frontAndBackPlanes
    {
        type            empty;
    }
}


// ************************************************************************* //
