/*--------------------------------*- C++ -*----------------------------------*\
| =========                 |                                                 |
| \\      /  F ield         | OpenFOAM: The Open Source CFD Toolbox           |
|  \\    /   O peration     | Version:  4.0                                   |
|   \\  /    A nd           | Web:      www.OpenFOAM.org                      |
|    \\/     M anipulation  |                                                 |
\*---------------------------------------------------------------------------*/
FoamFile
{
    version     2.0;
    format      ascii;
    class       volVectorField;
    location    "49";
    object      U;
}
// * * * * * * * * * * * * * * * * * * * * * * * * * * * * * * * * * * * * * //

dimensions      [0 1 -1 0 0 0 0];

internalField   nonuniform List<vector> 
918
(
(0.985162 -0.000503895 0)
(0.00501296 2.96625 0)
(0.00803167 0.868432 0)
(0.979703 0.00214751 0)
(-0.011615 2.06412 3.48904e-20)
(-0.00704711 2.94879 -2.5047e-18)
(0.81145 1.14999 4.36569e-19)
(0.216797 0.107306 -1.55955e-20)
(0.999907 -0.000282246 0)
(0.0620628 0.782794 0)
(0.0131615 0.589314 0)
(0.734753 -0.0174642 0)
(0.011134 2.93035 0)
(0.00248973 2.79524 0)
(-0.0176565 3.15252 7.73052e-19)
(-0.0208194 1.90993 -1.06705e-21)
(0.292309 0.0344399 1.03189e-18)
(0.187229 1.15688 3.10044e-19)
(0.962751 0.00501827 0)
(-0.005907 0.521228 0)
(0.0282751 0.143121 -7.35495e-19)
(1.00198 -0.00497868 0)
(1.00022 -0.00978953 0)
(0.97573 -0.00643981 0)
(0.583357 -0.0373987 0)
(0.0155786 2.64044 0)
(-0.0149134 2.91004 9.23788e-19)
(0.00951324 0.930395 0)
(-0.00920303 1.17355 0)
(0.0108396 0.910138 0)
(-0.0130917 2.60819 0)
(-0.00100677 2.11888 -2.78643e-20)
(-0.0103759 1.89137 0)
(-0.0205995 2.9876 -9.01393e-23)
(-0.0166858 3.00529 1.94652e-18)
(0.00210022 3.00017 0)
(0.870997 -0.00957866 0)
(0.404931 0.937665 1.83543e-19)
(0.792784 1.16609 -4.93491e-19)
(0.942639 1.00837 5.35277e-19)
(0.664229 1.25749 -1.00795e-19)
(0.665506 1.23793 5.82789e-19)
(0.253036 0.175831 1.52148e-20)
(0.230157 0.0809283 0)
(1.14349 0.55447 0)
(0.221342 0.167408 6.94071e-20)
(0.188557 0.105845 -7.20217e-20)
(0.919829 -0.00744411 0)
(1.00026 0.000156568 0)
(0.99991 0.000335948 0)
(1.00363 -0.0077674 0)
(1.00096 -0.000920543 0)
(1.00017 3.26129e-05 0)
(0.0752937 1.81733 -7.96162e-19)
(0.0292356 0.976799 0)
(0.0949467 0.853324 0)
(0.0134303 0.930734 0)
(0.0361715 0.713479 0)
(0.00994498 2.00327 0)
(-0.000819261 0.829616 0)
(0.0096101 0.600209 0)
(0.000351546 0.818676 0)
(0.0100567 0.578223 0)
(0.839944 -0.0158624 0)
(0.844166 0.0302011 0)
(0.767596 -0.00642146 0)
(0.812187 0.0400225 0)
(0.704963 -0.01971 0)
(0.0146856 3.00041 9.28941e-19)
(0.0114918 3.00807 0)
(0.00610562 3.00276 0)
(0.0135474 2.99738 1.05465e-23)
(0.00796112 2.95847 -1.38064e-18)
(0.0145006 2.98201 0)
(0.0108816 2.90355 0)
(0.0242435 2.93066 2.1253e-24)
(0.00466545 2.82527 0)
(0.0307429 2.91656 0)
(-0.00484506 2.74535 0)
(0.307271 3.54799 0)
(-0.13171 3.62916 0)
(0.138936 3.24287 -7.19405e-19)
(-0.0131575 2.97955 0)
(-0.0206583 1.99078 0)
(-0.00647424 2.16856 1.05243e-21)
(-0.0134145 1.91679 -9.38553e-21)
(0.392414 0.144278 -3.57559e-19)
(0.308693 0.0200437 -3.46269e-19)
(0.36281 0.152965 -1.07413e-18)
(0.269355 0.0410386 -7.04816e-19)
(0.225823 0.970132 0)
(0.26842 1.30265 -3.634e-19)
(0.361144 1.23327 6.05459e-19)
(0.98746 0.00855714 0)
(0.941907 0.00583394 0)
(1.0003 0.000578649 0)
(1.00286 0.00930665 0)
(1.00302 0.00846339 -2.76974e-18)
(0.991912 0.00969892 2.09162e-18)
(-0.00374522 0.804826 0)
(-0.00175502 0.529969 0)
(-0.0337065 0.992574 0)
(-0.021486 0.834514 0)
(0.00262155 0.51461 0)
(0.0499099 0.146365 2.27201e-19)
(0.114904 0.120499 0)
(0.993545 -0.00837797 0)
(0.954437 -0.00652414 0)
(0.757482 0.0467005 0)
(0.692752 0.0572303 0)
(0.664286 -0.0316565 0)
(0.965846 -0.00794928 0)
(0.607049 0.0762491 0)
(0.44443 -0.0109807 1.54708e-18)
(-0.0370124 2.86234 6.8912e-19)
(0.0411395 2.90989 0)
(0.0539779 2.88573 0)
(-0.00440131 2.70021 0)
(-0.0130781 2.9852 8.75532e-19)
(-0.0179075 2.89509 0)
(-0.0154107 2.98805 -2.71307e-18)
(-0.0132735 2.92519 9.28691e-19)
(-0.0134809 1.34265 0)
(0.00745391 1.37222 0)
(-0.00701442 2.13698 3.11227e-22)
(-0.00537018 2.09869 0)
(-0.0232699 1.90034 0)
(0.938266 -0.00754187 0)
(0.856897 -0.00986413 0)
(0.863338 0.00602636 0)
(0.949381 -0.00792109 0)
(0.883829 -0.00815027 0)
(0.516828 1.13099 -2.31679e-19)
(0.566001 1.18201 0)
(0.369208 0.882613 3.4172e-20)
(0.31144 0.741511 0)
(0.903316 1.04759 -1.47008e-19)
(1.01872 0.856404 2.95209e-19)
(0.352971 1.35234 0)
(0.519685 1.31668 0)
(0.54191 1.26399 0)
(0.118315 0.184322 -3.03133e-19)
(0.283646 0.167601 0)
(0.252475 0.0791463 1.99006e-19)
(0.990682 0.911735 0)
(1.06399 0.767304 0)
(1.08844 0.708702 -2.29464e-19)
(1.12314 0.613745 0)
(1.17452 0.400339 5.60404e-20)
(0.957626 -0.00877458 0)
(0.96244 -0.0100837 0)
(0.901616 -0.00795748 0)
(0.984184 -0.00916473 0)
(0.974672 -0.00936533 0)
(0.937094 -0.00636645 0)
(1.00019 0.00233587 0)
(1.0009 0.00141039 0)
(0.99991 0.00085246 0)
(0.0351136 2.06955 4.40223e-19)
(0.11989 1.76033 0)
(0.0173759 2.18398 6.82362e-19)
(0.048169 1.87132 -5.73566e-19)
(0.101966 1.16494 -2.53751e-19)
(0.0447913 1.05174 0)
(0.142481 1.00607 0)
(0.00847696 0.889268 0)
(0.0149286 0.663497 0)
(-0.00088438 2.23581 -1.0607e-21)
(0.0190239 2.00735 0)
(-0.00121157 2.23788 -4.51233e-20)
(0.0114102 2.0131 7.70432e-20)
(0.00380744 0.860627 0)
(0.00223955 0.842671 0)
(0.00816453 0.626688 0)
(0.00414602 0.809885 0)
(0.00751163 0.56249 0)
(0.936874 0.00946917 0)
(0.84795 -0.0150131 0)
(0.926482 0.00013596 0)
(0.841311 -0.0129576 0)
(0.812034 -3.38915e-05 0)
(0.9004 0.0208544 0)
(0.875725 0.0254204 0)
(0.788866 -0.00279552 0)
(0.00558353 3.06471 -8.68096e-21)
(0.0166466 3.05783 0)
(0.0146371 2.96903 0)
(0.00860176 2.87621 0)
(0.923868 3.96312 0)
(1.23801 3.29632 9.29533e-19)
(0.069494 3.0718 0)
(-0.0289739 2.90405 0)
(-0.00234156 1.39184 0)
(-0.0221398 1.6949 0)
(-0.0103856 1.52732 0)
(-0.0277904 2.56353 -5.35784e-21)
(-0.00917664 2.24899 0)
(-0.017149 2.39989 0)
(0.00248746 1.94128 1.56921e-21)
(-0.0029617 2.23789 6.83216e-21)
(-0.00450275 2.20338 9.41037e-21)
(-0.00599638 1.92738 0)
(0.432656 0.126797 5.43105e-19)
(0.352806 0.0113492 -5.33122e-19)
(0.260002 1.58149 0)
(0.273937 0.743854 -3.1655e-19)
(0.177032 1.66756 -1.05836e-18)
(0.226657 1.2098 1.06082e-18)
(0.902141 0.00643093 0)
(0.96746 0.0110859 0)
(0.974587 0.0107876 0)
(0.923382 0.00644015 0)
(-0.00329297 0.81074 0)
(0.00206489 0.806535 0)
(0.00605505 0.540417 0)
(0.189088 0.158782 6.40718e-19)
(0.157324 0.14487 -7.57046e-19)
(0.155609 0.11078 0)
(1.09151 0.0842914 2.80597e-20)
(1.07377 0.0383176 0)
(1.00799 0.039046 0)
(0.903492 -0.00643455 0)
(0.475872 0.107586 0)
(0.527472 0.0875863 -2.4736e-18)
(0.394927 0.00679208 9.26139e-19)
(0.00884286 2.98057 7.3687e-19)
(-0.0332009 2.86521 4.59089e-20)
(0.00366099 3.05023 -1.83661e-20)
(0.0201859 3.04338 6.5339e-19)
(-0.0149972 2.99657 3.04861e-20)
(-0.0129718 2.94948 -1.22617e-22)
(-0.0172715 3.01192 -5.63606e-19)
(0.0148985 3.02371 4.07987e-19)
(0.0073988 3.03685 -6.46941e-19)
(0.933252 -0.00147589 0)
(0.938978 -0.0034258 0)
(0.845125 -0.00940404 0)
(0.956633 0.0118306 0)
(0.942863 0.0131147 0)
(0.881685 0.00597222 0)
(0.917524 0.0168203 0)
(0.926227 0.0148376 0)
(0.838568 0.0030226 0)
(0.719559 1.40863 3.78505e-20)
(0.752836 1.51742 0)
(0.186218 0.323784 7.18543e-20)
(0.223518 0.665241 5.79992e-19)
(0.262054 0.722274 -3.37827e-19)
(0.265892 0.531879 6.71544e-19)
(0.340439 0.800995 1.59391e-18)
(0.137246 0.226227 3.74946e-19)
(0.334955 0.163938 7.4748e-19)
(0.31065 0.168091 1.95119e-19)
(0.260258 0.0601829 3.71043e-19)
(1.16369 0.457883 4.71494e-20)
(1.18098 0.253292 4.22408e-20)
(0.00913 2.23097 2.66067e-19)
(0.0430594 1.93818 0)
(0.967366 0.0287164 0)
(0.941061 0.0134813 0)
(0.866192 -0.0183812 0)
(0.0113168 3.07446 0)
(0.0197139 2.94401 1.19815e-18)
(0.0164379 2.95637 0)
(0.00632 2.85063 -1.18874e-18)
(0.006196 3.09084 2.90934e-19)
(0.00721218 3.08246 0)
(0.785771 1.81953 -1.59243e-19)
(1.24588 2.49634 4.05406e-19)
(0.767835 1.95901 -1.23417e-18)
(0.0200139 2.98112 -6.3682e-19)
(0.035496 3.00059 0)
(-0.0340731 2.87789 0)
(-0.00316556 2.21799 -1.3024e-20)
(-0.00275472 2.24047 -1.95754e-20)
(0.00509903 1.97525 -7.56457e-21)
(0.277028 1.38926 1.02963e-18)
(0.232767 0.533473 -7.06249e-19)
(0.0633297 1.99423 7.75249e-19)
(0.135768 1.88182 -9.21803e-19)
(0.180123 1.50211 9.31774e-20)
(0.00167085 3.11909 -1.81584e-18)
(0.0146666 3.1185 1.9556e-18)
(-0.00898761 2.98119 8.05536e-19)
(-0.00392389 2.97752 -7.6192e-19)
(-0.0210308 2.88111 -8.20419e-19)
(0.00863896 3.10017 -2.16528e-18)
(0.0023541 3.10549 2.12397e-18)
(0.27779 0.690792 0)
(0.243951 0.680519 -1.19927e-18)
(0.0966233 0.225484 5.32135e-19)
(0.353876 0.926764 1.11289e-18)
(0.192411 0.271031 -1.71586e-18)
(1.17531 0.17227 6.81353e-20)
(1.1816 0.307274 0)
(1.16372 0.120758 -1.30797e-20)
(0.000619038 2.24743 -1.70551e-21)
(0.00356166 2.24008 0)
(0.0277189 1.97374 0)
(0.340122 1.29806 -3.70291e-19)
(0.371585 1.13806 -8.0206e-19)
(0.206605 0.370463 1.42868e-18)
(1.00587 -0.0108482 0)
(1.00766 -0.00764459 5.11088e-19)
(-0.0103962 1.32128 0)
(-0.0259362 1.31091 0)
(1.00222 0.00350545 1.80648e-21)
(1.00367 0.00945648 1.04327e-18)
(-0.0161712 2.54695 6.78582e-21)
(-0.0222461 2.58984 0)
(0.0350285 3.17781 4.2482e-19)
(0.393643 3.48797 0)
(1.16692 0.654662 -6.43571e-20)
(1.01289 0.0131029 -2.14554e-21)
(1.02128 -0.0103456 0)
(1.0017 0.000119483 7.49906e-23)
(0.103042 1.35995 0)
(0.143877 2.57549 0)
(0.0226362 1.3044 0)
(-0.000455095 2.62372 4.36156e-20)
(-0.0206732 2.58007 1.7205e-20)
(1.0004 0.0292281 2.50865e-21)
(1.06231 0.00407659 0)
(1.09599 0.0239319 0)
(-0.0215035 1.73492 0)
(-0.0167378 2.5863 0)
(0.00266246 1.30498 0)
(0.298803 1.47286 -1.62625e-19)
(1.01128 -0.00963992 0)
(1.00939 -0.0149195 0)
(1.00237 0.000736096 6.53083e-19)
(1.00547 -0.00481661 -7.67615e-19)
(1.00118 -0.000991175 0)
(-0.0040742 1.45779 0)
(-0.00111046 1.36755 0)
(1.55768e-05 1.41481 0)
(-0.000389447 1.29293 0)
(-0.00880461 1.27292 0)
(0.000116761 1.2559 0)
(1.03477 -0.00624499 0)
(1.02017 0.0156549 -8.77834e-22)
(0.812116 1.26432 2.50561e-19)
(1.00224 0.000306783 -6.50733e-19)
(1.00407 0.00524861 7.61594e-19)
(1.00117 0.00206496 0)
(1.01277 0.0103202 6.47455e-19)
(1.008 0.00829652 -7.84399e-19)
(1.00858 0.0146868 0)
(-0.0222549 2.61597 0)
(-0.0239618 2.59674 -1.15247e-20)
(-0.0215985 2.61033 8.27441e-21)
(1.2318 0.262993 6.04905e-19)
(1.1583 0.0847758 0)
(0.0417032 3.07727 -9.41566e-19)
(0.0649934 2.85473 -6.84667e-20)
(0.140162 3.19217 1.44161e-18)
(0.13516 3.22079 -2.08186e-19)
(0.133795 3.23235 0)
(0.0200278 3.13754 2.43421e-19)
(0.0756079 3.15997 9.28729e-19)
(0.0681353 3.18572 -4.5864e-19)
(0.0225768 3.12964 0)
(0.614258 0.278255 0)
(0.542258 0.320126 0)
(1.13668 0.690382 1.52276e-19)
(1.13217 0.810903 -1.42957e-19)
(1.1937 0.578195 0)
(1.22183 0.513449 0)
(1.01611 0.0133324 -1.20695e-18)
(1.01499 0.0142635 1.515e-18)
(1.02527 -0.00988859 0)
(1.02334 -0.0119114 0)
(1.00643 0.00258956 0)
(1.01041 0.00370497 0)
(1.00457 0.00184831 0)
(1.0098 0.00620271 0)
(1.00783 0.00594998 0)
(1.00451 0.0046776 0)
(0.0916817 1.35723 0)
(0.0857724 1.32692 0)
(0.122636 1.39341 0)
(0.137641 1.40329 0)
(0.144747 2.60031 0)
(0.185208 2.66873 -4.33466e-19)
(0.100246 2.65615 0)
(0.0846086 2.65827 2.07978e-19)
(0.0380828 2.67911 -1.6938e-19)
(0.0163327 1.31391 0)
(0.0210974 1.24736 0)
(0.0198795 1.32731 0)
(0.0330098 1.26882 0)
(0.00159161 1.98166 -1.20099e-20)
(-0.0194037 2.60807 -2.27059e-21)
(-0.00866054 2.66496 3.33657e-20)
(-0.0179133 2.68388 0)
(-0.0217688 2.61414 -3.86819e-20)
(-0.0218478 2.60901 -7.21294e-21)
(0.0107304 1.98036 1.15392e-20)
(-0.00641037 2.39497 3.04651e-21)
(-0.0132025 2.41738 -3.78442e-20)
(1.01054 0.0371311 1.23158e-18)
(1.00584 0.0161656 -1.52129e-18)
(1.00169 0.0443503 -1.23261e-18)
(0.978347 0.0220869 1.57293e-18)
(1.06354 0.00787072 0)
(1.04883 -0.00854266 0)
(1.09304 0.0340295 0)
(1.07341 0.0122554 0)
(1.07119 -4.32755e-05 0)
(1.13861 0.0813414 0)
(1.10998 0.0434252 0)
(1.11312 0.0314095 0)
(-0.0212446 2.43683 -1.45186e-22)
(-0.00691997 2.00972 0)
(-0.012209 2.21798 0)
(-0.0183265 2.60675 -3.6968e-21)
(-0.0162294 2.61581 -9.7807e-23)
(0.00886658 1.56571 -2.21555e-20)
(0.00209379 1.49552 2.25519e-20)
(-0.00668879 1.3859 0)
(-0.00912945 1.39218 0)
(-0.0107105 1.38657 0)
(0.00352208 1.30663 0)
(0.0137143 1.23724 0)
(0.378436 1.48915 2.63211e-19)
(0.419114 1.49151 1.414e-19)
(0.598089 2.45066 -2.40881e-19)
(0.400613 2.54581 7.10885e-19)
(0.351267 2.06414 7.27691e-20)
(1.02101 -0.00817386 0)
(1.01548 -0.00977982 0)
(1.01489 -0.0155101 0)
(1.00743 -0.00113921 0)
(1.00493 -0.000931991 0)
(1.00777 -0.00473483 0)
(1.00925 -0.00368084 0)
(1.01418 -0.00444234 0)
(1.02091 0.016172 1.18189e-18)
(1.01788 0.015641 -1.51335e-18)
(1.02129 0.0181543 -1.19078e-18)
(1.0191 0.0168561 1.48787e-18)
(0.774358 1.31494 0)
(0.710209 1.36573 2.35741e-19)
(0.888086 1.21369 8.84264e-20)
(0.933963 1.15966 -1.17653e-19)
(1.15774 2.6055 2.88558e-19)
(0.788116 0.116921 6.035e-19)
(1.16097 0.106593 0)
(1.20825 0.191099 -4.86222e-19)
(1.19424 0.152869 -2.06196e-20)
(1.00525 0.152885 0)
(0.132458 2.95942 5.51898e-19)
(0.109455 2.86515 -1.19519e-18)
(0.0191147 2.37521 8.02552e-19)
(0.0904534 -0.0760601 -3.54325e-19)
(0.33851 3.41748 -2.08375e-19)
(0.192727 3.31081 0)
(0.23625 3.35213 2.71375e-19)
(0.242436 3.03247 -1.82832e-18)
(0.337059 3.19155 0)
(0.00685496 3.12094 4.7281e-20)
(0.0162135 3.12984 -5.57049e-19)
(0.0149726 3.12591 8.19876e-19)
(0.0354739 3.13985 0)
(0.0338949 3.15043 0)
(1.2147 2.60392 0)
(0.544262 0.820453 -5.35163e-19)
(1.05801 0.983198 1.46648e-21)
(0.992891 1.06754 0)
(0.845992 0.96816 -1.14698e-19)
(1.08299 0.884276 2.84037e-20)
(0.350874 0.366623 -9.11882e-19)
(0.671063 0.312789 -1.99547e-20)
(0.614554 0.218936 4.2443e-19)
(0.56641 0.354513 3.12853e-20)
(0.472548 0.314336 -1.25866e-18)
(0.637932 0.322071 0)
(0.700402 0.415905 7.20956e-19)
(0.708854 0.4191 0)
(0.600376 0.346461 0)
(0.550427 0.262185 0)
(0.81026 0.61533 4.25259e-19)
(1.23175 0.284986 -5.11013e-19)
(1.23037 0.423067 0)
(1.24036 0.363307 0)
(0.723773 0.189783 6.30286e-19)
(0.85717 0.541084 -3.90826e-19)
(0.754786 0.511533 6.93174e-19)
(0.952231 0.434272 -7.61689e-19)
(1.0195 0.0148117 8.11596e-19)
(1.01773 0.0142764 -8.16673e-19)
(1.01592 0.0154734 0)
(1.03622 -0.00578782 0)
(1.02973 -0.00849062 -7.6516e-19)
(1.02777 -0.0120417 7.57584e-19)
(1.02495 0.0101302 0)
(1.02353 0.0138061 0)
(1.01141 0.00409878 0)
(1.01424 0.00906878 0)
(1.01514 0.00404772 0)
(1.01424 0.00281466 0)
(0.0630716 1.34233 0)
(0.0654143 1.29721 0)
(0.14327 1.3688 -1.59272e-21)
(0.271881 1.46962 8.39816e-20)
(0.164947 1.44069 1.748e-19)
(0.19697 1.4476 -2.86184e-19)
(0.16471 1.39379 0)
(0.13106 1.59549 -8.09603e-20)
(0.114878 1.56958 0)
(0.34896 2.01625 -1.05793e-19)
(0.344694 2.3488 6.25394e-19)
(0.188112 1.45345 7.05907e-20)
(0.261388 1.38394 1.99543e-20)
(0.196867 1.37321 -1.6154e-20)
(0.272417 1.32708 -1.08155e-19)
(0.240199 1.57834 0)
(0.262798 1.61758 1.16462e-19)
(0.029486 2.26541 -3.51293e-20)
(0.0423068 2.66895 0)
(0.0647028 2.40232 1.46886e-19)
(0.0608814 2.42275 0)
(0.0685822 2.67167 -2.30377e-19)
(0.0485137 2.69902 0)
(0.0268757 1.41889 1.30613e-20)
(0.0330782 1.47078 0)
(0.0283229 1.38805 0)
(0.0234118 1.39108 -1.47371e-20)
(2.28933e-05 2.65159 -1.69196e-20)
(0.0288763 2.6973 1.92583e-19)
(0.0101188 2.72145 1.35993e-21)
(0.00275638 1.82924 1.1488e-20)
(-0.00338044 1.68178 3.95049e-21)
(0.0141257 1.29584 0)
(0.0175203 1.21977 0)
(0.0453084 1.57863 -4.92025e-21)
(0.0283446 1.4533 -1.07013e-20)
(0.0354647 1.51779 1.34145e-20)
(0.0381076 1.60261 0)
(-0.0253865 2.26835 6.40221e-20)
(-0.0259411 2.55194 -2.62393e-20)
(-0.0133821 2.44652 -9.5709e-23)
(-0.00139106 1.84549 -1.39241e-20)
(-0.0229754 2.49827 -4.42003e-21)
(-0.0191411 2.44095 2.59665e-20)
(1.01918 0.0210165 -8.06854e-19)
(1.01519 0.0267969 8.11651e-19)
(1.01422 0.0162208 0)
(1.01227 0.0710428 1.13978e-18)
(0.989633 0.0597417 -1.28287e-18)
(0.946872 0.0444391 1.43679e-18)
(1.01362 0.109364 -1.51912e-19)
(1.04255 -0.00582479 0)
(1.05077 -0.00158512 7.30142e-19)
(1.03884 -0.0099399 -7.31621e-19)
(1.07071 0.0416182 -4.34756e-20)
(1.06422 0.0232007 3.74752e-19)
(1.06325 0.0555036 0)
(1.0532 0.048834 -1.34718e-19)
(1.03244 0.0419216 0)
(1.0257 0.0383304 0)
(1.02782 0.0131247 0)
(1.02408 0.0158787 0)
(1.03989 0.0318686 2.77391e-19)
(1.0388 0.0265691 -6.12983e-19)
(1.0508 0.0335023 -2.94108e-19)
(1.0481 0.0335258 -3.23856e-19)
(1.07058 0.0631944 6.32551e-19)
(1.09569 0.0513144 0)
(1.10391 0.094656 0)
(-0.0197402 2.27386 4.03142e-20)
(-0.0168503 2.01488 -5.95682e-22)
(-0.0134161 2.02126 0)
(-0.0231594 2.44785 -4.01205e-20)
(-0.0175776 2.40462 7.4274e-22)
(-0.0293091 2.47767 3.26001e-21)
(-0.0191116 2.62264 5.81359e-21)
(-0.0196647 2.5645 -1.14219e-21)
(-0.0185396 2.51444 2.4172e-21)
(-0.0141227 2.61798 1.31474e-21)
(-0.0193821 2.61921 -8.89235e-23)
(0.000533138 1.48274 -3.82478e-22)
(0.00996819 1.61476 -1.74513e-20)
(0.363916 1.43601 -1.10466e-19)
(0.365269 1.37333 3.95463e-20)
(0.651602 1.41598 -2.28166e-19)
(0.519137 1.48373 -1.39056e-19)
(0.57631 1.44977 0)
(0.593842 2.42754 2.08243e-19)
(0.661504 2.42112 3.39156e-19)
(0.411141 2.51783 8.63348e-20)
(0.402772 2.54357 -6.21509e-19)
(0.511217 2.48666 6.17464e-19)
(0.553467 2.46444 0)
(0.489281 2.52071 -5.63951e-19)
(0.247963 2.59343 1.16585e-18)
(0.354266 2.56657 -7.92772e-20)
(0.284059 2.65498 -1.60829e-18)
(0.946438 2.38057 7.30632e-19)
(0.837778 2.38534 0)
(1.01104 0.000463404 2.64967e-20)
(1.01529 -0.00544717 -2.14999e-20)
(1.01763 -0.0035769 -3.92715e-19)
(1.01499 -0.000924342 3.94797e-19)
(1.01241 0.00115308 0)
(0.640838 1.28741 0)
(0.666033 1.18467 0)
(0.777712 1.09646 0)
(0.658734 1.14767 0)
(1.18712 2.61952 5.92303e-20)
(1.07591 2.36653 0)
(0.838439 2.17704 3.84983e-21)
(0.826035 2.44252 0)
(0.923274 2.53429 -4.24379e-19)
(0.958901 2.49002 2.82375e-19)
(0.809605 0.175325 0)
(0.766565 0.14951 1.63901e-19)
(0.917226 0.146875 9.54818e-19)
(0.832265 0.148667 -3.57352e-19)
(0.794588 0.0844965 -1.10202e-18)
(1.07911 0.235571 -9.11949e-19)
(0.994836 0.29377 -1.61253e-20)
(0.929015 0.296065 8.75903e-19)
(1.00687 0.225215 7.322e-19)
(0.951072 0.191945 -1.26671e-18)
(0.915643 0.194407 1.58311e-19)
(0.954925 0.257871 -3.37012e-19)
(0.930388 0.219704 0)
(0.992652 0.186995 6.24981e-19)
(1.0467 0.188828 0)
(1.04272 0.215618 0)
(1.10517 0.118263 2.94193e-19)
(1.07069 0.176428 -1.44858e-20)
(1.07358 0.236714 -1.60219e-19)
(1.10164 0.202977 0)
(1.02287 0.0460562 6.2579e-19)
(1.03985 0.0588784 7.80403e-19)
(1.03378 0.044456 -6.20753e-19)
(1.04262 0.0655812 -5.23004e-19)
(1.01891 0.0733199 -8.01465e-19)
(0.98809 0.159675 0)
(0.998488 0.105732 0)
(0.965087 0.0675453 -5.12022e-19)
(0.910852 0.090837 2.01075e-19)
(1.03908 0.104867 7.23191e-19)
(1.06885 0.12124 -8.4863e-19)
(1.07531 0.154357 7.57935e-19)
(1.0288 0.14461 0)
(1.07458 0.10967 0)
(1.05468 0.0904871 -3.47194e-19)
(1.04402 0.095401 -5.91741e-19)
(0.583239 1.07221 1.41336e-19)
(0.610577 1.39818 -4.28315e-20)
(1.15722 2.73496 -2.289e-19)
(1.22321 3.07678 1.87978e-21)
(1.24932 2.71826 -1.31481e-19)
(1.27855 2.70189 -2.9778e-20)
(1.20673 2.34282 -1.05984e-20)
(1.21075 2.98083 -9.4096e-20)
(1.23053 2.9462 2.35836e-19)
(1.21377 3.23013 -1.43257e-19)
(1.37407 2.96188 1.98046e-19)
(1.36381 2.88015 0)
(0.553492 0.828159 -5.0409e-20)
(0.126616 1.24201 5.77277e-19)
(0.541475 0.410364 5.90717e-19)
(0.380718 0.158613 6.49571e-19)
(0.506521 0.351621 7.11215e-19)
(0.543784 0.453959 -1.14589e-18)
(0.546316 0.453919 9.36739e-19)
(0.485929 0.365312 -3.57985e-19)
(0.391263 0.296997 8.11649e-19)
(0.730863 0.257773 -3.61996e-19)
(0.69167 0.280531 0)
(0.660991 0.199209 8.16369e-21)
(0.735189 0.505558 3.79201e-19)
(0.707384 0.473831 -1.38231e-18)
(0.614465 0.454457 1.37844e-20)
(0.620197 0.443574 0)
(0.683362 0.719881 4.03872e-19)
(0.845461 0.772828 4.07707e-19)
(0.769003 0.855075 -4.76718e-19)
(0.891534 0.809445 -1.60909e-19)
(0.921891 0.853242 -3.96211e-20)
(0.929273 0.852976 4.05744e-20)
(0.855852 0.649384 -7.04684e-19)
(0.938373 0.704834 1.49481e-19)
(0.996415 0.720086 0)
(0.987363 0.697233 -2.03515e-19)
(1.02425 0.333907 2.19447e-19)
(1.14368 0.299962 2.9941e-19)
(1.06599 0.272927 3.7308e-19)
(1.01057 0.365916 -4.42543e-19)
(1.06017 0.431921 0)
(1.11851 0.416231 0)
(0.919124 0.367866 4.69751e-21)
(0.841838 0.299476 0)
(0.881953 0.295616 4.12799e-19)
(0.909926 0.303031 -5.81192e-21)
(0.946246 0.436984 2.12265e-18)
(0.905124 0.494418 5.48187e-19)
(0.908374 0.459811 -5.83296e-19)
(0.828846 0.44437 6.24796e-19)
(0.811611 0.437222 3.75228e-19)
(0.780663 0.418661 -3.68899e-19)
(1.02729 -0.000363462 6.54227e-19)
(1.02 -5.38167e-05 0)
(1.01851 0.000879158 4.26526e-19)
(1.0217 -0.00169529 -9.66189e-19)
(1.02231 0.00432897 4.69323e-19)
(1.02037 0.0112933 -9.8294e-19)
(1.0213 0.0106775 0)
(1.0206 0.0109209 -2.04827e-19)
(1.01597 0.00772822 5.13861e-19)
(1.01668 0.0104951 -2.5639e-19)
(1.01738 0.00984381 1.88829e-19)
(0.0275507 1.31848 0)
(0.0336678 1.36116 0)
(0.0437356 1.32002 0)
(0.0462884 1.27641 0)
(0.0706838 1.38346 -2.24258e-20)
(0.0778612 1.35347 1.39133e-20)
(0.110961 1.51916 -1.94643e-20)
(0.0937354 1.36536 2.93769e-23)
(0.033041 1.45798 -9.29803e-21)
(0.0370705 1.45077 7.35223e-21)
(0.0623005 1.36796 -7.931e-21)
(0.0544023 1.36975 2.46682e-20)
(0.0479843 1.34558 3.49652e-21)
(0.0383542 1.36919 2.06251e-22)
(0.106162 2.37334 -1.62251e-19)
(0.0950813 2.42012 0)
(0.169632 2.04824 1.11517e-19)
(0.109168 1.70898 4.41101e-20)
(0.23092 2.04377 -9.18263e-20)
(0.203265 2.4368 0)
(0.264301 2.38734 -6.09313e-19)
(0.303392 2.38517 4.31598e-19)
(0.229763 2.00408 -2.55293e-19)
(0.153303 2.16459 1.71374e-19)
(0.142354 2.27544 0)
(0.016189 1.87718 -1.8622e-20)
(-0.00196166 2.39518 -6.55581e-20)
(0.00382394 2.14974 0)
(0.00973147 2.4579 -1.34549e-20)
(0.0257627 2.30285 2.08024e-20)
(0.0162154 1.39987 -3.15251e-21)
(0.0161363 1.38585 5.58012e-20)
(0.0161531 1.39084 -2.01803e-20)
(0.0205533 1.39132 -1.35358e-20)
(0.0260315 1.42265 0)
(0.0134058 1.37326 0)
(0.00678602 1.29144 -2.39701e-20)
(0.0125871 1.36359 6.29911e-21)
(0.0144088 1.36431 0)
(0.0096734 1.2827 -1.69053e-20)
(0.018303 1.21483 3.58746e-20)
(1.04054 0.0115453 0)
(1.04656 0.00782109 -6.85087e-20)
(1.03854 0.021537 -4.94158e-19)
(1.04819 0.0203895 0)
(1.05205 0.0202335 0)
(1.03626 0.0117056 -6.70872e-21)
(1.03096 0.011549 7.93939e-19)
(1.03172 0.016436 9.62289e-19)
(1.02567 0.0203254 0)
(1.02273 0.0207206 0)
(1.03509 0.0252777 4.92699e-19)
(1.02593 0.0265078 0)
(1.02409 0.0265344 0)
(-0.0148174 2.01691 0)
(0.00763569 1.6455 -3.56554e-21)
(-0.000509111 1.75202 -2.32076e-20)
(0.00504584 1.37513 0)
(-0.00199221 1.54485 -7.23229e-21)
(-0.00125248 1.45252 5.95936e-21)
(0.000638258 1.38628 0)
(0.392138 1.66433 0)
(0.368915 1.30269 -7.5463e-20)
(0.303251 1.34395 0)
(0.422745 1.30416 1.40564e-20)
(0.46813 1.46112 0)
(0.44946 1.40709 2.08176e-20)
(1.03663 2.68343 -1.5492e-20)
(0.967473 2.40998 -9.18474e-19)
(0.919514 2.19481 1.04099e-18)
(0.851495 2.37737 2.43001e-19)
(0.848297 2.49441 0)
(0.918259 2.49021 0)
(0.929753 2.37429 0)
(0.908548 2.36252 -9.46677e-19)
(0.689388 2.46081 -3.96823e-19)
(0.801651 2.45052 -9.81019e-20)
(0.812424 2.42436 7.46525e-20)
(0.695966 2.39479 0)
(0.800701 2.39023 0)
(0.759177 2.40312 -3.69465e-19)
(0.769165 2.48477 0)
(0.626349 1.09805 0)
(0.485519 0.917072 -5.08612e-19)
(0.561686 0.953586 -3.22995e-20)
(0.524554 1.05045 0)
(0.524998 0.9969 7.63259e-19)
(0.791521 0.879282 -1.33837e-19)
(0.801261 1.01631 0)
(0.775629 0.97982 1.93036e-19)
(0.660395 1.03459 0)
(0.663488 0.938628 0)
(1.16557 2.75761 -2.33114e-19)
(1.14326 2.82083 -9.88485e-20)
(0.932337 2.33853 1.03158e-19)
(0.90005 2.31802 -8.42008e-20)
(1.13085 2.73116 0)
(1.08436 2.70103 1.01341e-19)
(1.09097 2.48511 -3.18525e-19)
(0.98577 2.23635 -3.07307e-20)
(0.498922 1.34821 0)
(0.513584 1.0747 -1.24643e-19)
(0.574334 1.17153 0)
(0.857775 0.23771 0)
(0.778351 0.190652 0)
(0.71249 0.152305 0)
(0.850488 0.238245 -6.49745e-19)
(0.751586 0.227655 3.78204e-19)
(0.927422 0.0772508 -4.15178e-19)
(0.94197 0.124221 0)
(0.922582 0.13722 1.78207e-19)
(0.859361 0.111954 7.15161e-19)
(0.826033 0.0693765 -4.47517e-19)
(1.15987 3.35531 -7.19859e-19)
(1.20826 3.27465 0)
(1.15778 3.3838 -1.48661e-18)
(0.645613 3.54481 1.26241e-18)
(0.869281 3.11284 7.03203e-20)
(0.521022 0.829509 6.08263e-19)
(0.431488 0.827096 0)
(0.324803 0.447188 -1.52312e-19)
(0.458199 0.665002 8.68413e-19)
(0.543555 0.413794 -2.05401e-19)
(0.51162 0.484016 2.37686e-19)
(0.665754 0.51624 5.11506e-19)
(0.699326 0.547021 0)
(0.651745 0.591249 0)
(0.609736 0.535098 0)
(0.998469 0.606988 9.61953e-20)
(0.911433 0.543549 -5.33234e-19)
(0.937762 0.576593 4.04033e-19)
(0.969389 0.515033 -4.12236e-19)
(1.07808 0.487932 0)
(1.0861 0.57785 -1.0199e-19)
(0.85144 0.39726 -8.56503e-19)
(0.854131 0.38593 -1.05805e-18)
(0.794234 0.38532 6.68018e-19)
(0.796389 0.357807 -6.82486e-19)
(0.844939 0.319266 -5.34403e-19)
(0.794119 0.317776 6.55613e-19)
(1.02666 0.00580614 -4.99748e-19)
(1.02639 0.00602732 1.01709e-18)
(1.02931 4.89057e-06 6.34159e-19)
(1.0335 0.000918762 -7.63777e-19)
(1.0336 0.00883425 0)
(1.03004 0.00950965 -1.24314e-18)
(0.061328 1.64352 2.3867e-20)
(0.0443925 1.57872 0)
(0.0844281 1.69379 1.4394e-19)
(0.0947485 1.6756 -1.27016e-19)
(0.0877606 1.53269 3.65e-20)
(0.085655 1.52038 0)
(0.0116781 1.67676 0)
(-0.00200853 1.48293 7.74845e-22)
(0.00128924 1.42839 -6.96431e-22)
(-0.00210896 1.54052 6.29369e-21)
(0.00406947 1.87633 -6.13562e-24)
(-0.00678755 1.93072 3.57741e-21)
(0.499226 1.37016 -2.77682e-19)
(0.492518 1.37309 3.04839e-19)
(0.449544 1.29972 -3.41889e-20)
(0.437635 1.29372 8.00201e-21)
(0.632207 1.30384 0)
(0.54731 1.39199 9.86984e-20)
(0.562766 1.39897 -9.6111e-20)
(0.461201 1.28607 3.32397e-20)
(0.51754 1.24104 0)
(0.569919 1.20751 0)
(0.656288 2.42017 5.83043e-19)
(0.671163 2.4603 1.27137e-18)
(0.715932 2.47085 -8.75705e-19)
(0.612569 2.44538 -2.03157e-19)
(0.56114 2.53679 2.85386e-19)
(0.509808 2.51037 -7.61185e-19)
(0.978193 2.3801 -5.82471e-19)
(1.01386 2.39288 0)
(0.925671 2.1728 -6.7285e-19)
(1.0548 2.68042 0)
(1.05707 2.6672 0)
(0.607447 2.26677 -1.20873e-19)
(1.04099 3.15893 1.33051e-19)
(0.911948 3.02912 -3.67107e-20)
(0.275258 0.885266 0)
(0.308653 0.738153 -3.20119e-19)
(0.473945 0.695715 -3.22889e-19)
(0.384593 2.01256 0)
(0.464984 2.7825 -4.89523e-20)
(0.419993 2.54598 0)
(0.702152 0.669014 -8.551e-19)
(0.78402 0.677316 1.15696e-18)
(0.804969 0.620726 -1.14416e-18)
(0.680805 0.632029 -1.10255e-19)
(0.735655 0.588604 -4.54638e-19)
(1.00382 2.76053 -1.01179e-19)
(1.04277 2.81852 -1.65668e-19)
(0.637045 2.13685 6.79667e-19)
(0.592998 1.70634 -4.84559e-19)
(0.698635 1.90049 -4.07748e-19)
(0.989973 2.44401 -1.13924e-19)
(0.995801 2.43638 2.98557e-19)
(0.657352 1.83621 2.82628e-20)
(0.449345 1.32721 1.46003e-19)
)
;

boundaryField
{
    wall-4
    {
        type            noSlip;
    }
    velocity-inlet-5
    {
        type            fixedValue;
        value           uniform (1 0 0);
    }
    velocity-inlet-6
    {
        type            fixedValue;
        value           uniform (0 3 0);
    }
    pressure-outlet-7
    {
        type            zeroGradient;
    }
    wall-8
    {
        type            noSlip;
    }
    frontAndBackPlanes
    {
        type            empty;
    }
}


// ************************************************************************* //
