/*--------------------------------*- C++ -*----------------------------------*\
| =========                 |                                                 |
| \\      /  F ield         | OpenFOAM: The Open Source CFD Toolbox           |
|  \\    /   O peration     | Version:  4.0                                   |
|   \\  /    A nd           | Web:      www.OpenFOAM.org                      |
|    \\/     M anipulation  |                                                 |
\*---------------------------------------------------------------------------*/
FoamFile
{
    version     2.0;
    format      ascii;
    class       volScalarField;
    location    "36";
    object      p;
}
// * * * * * * * * * * * * * * * * * * * * * * * * * * * * * * * * * * * * * //

dimensions      [0 2 -2 0 0 0 0];

internalField   nonuniform List<scalar> 
918
(
0.649204
1.29725
0.00657848
0.648419
0.0120169
1.26489
-0.407736
0.813776
0.629064
0.00465727
0.0617687
0.624123
1.12556
0.891113
-1.02867
0.0930526
0.765192
-0.287274
0.628425
0.0553066
0.850053
0.635518
0.638546
0.628943
0.692756
0.875394
1.00595
0.0225936
-0.00918886
-0.00554313
0.0533263
0.0373961
0.0477562
1.14827
1.19887
1.22143
0.597695
0.432687
-0.254131
-0.335994
-0.328568
-0.454513
0.80715
0.808396
-0.0817345
0.815713
0.825294
0.616661
0.628402
0.629339
0.630432
0.629383
0.630808
0.506063
-0.00380936
-0.0348186
0.0241478
0.0365783
0.159153
0.0690303
0.0668092
0.0645711
0.0699313
0.548026
0.620057
0.617286
0.629263
0.63796
1.236
1.20704
1.23264
1.14955
1.16444
1.10328
1.07518
0.912246
0.933282
0.875933
0.864464
-1.451
-2.41006
-0.442876
-0.190368
-0.00721853
0.0925318
0.104686
0.75591
0.754445
0.76487
0.779122
1.18239
-0.276299
-0.416382
0.62823
0.627204
0.635333
0.635691
0.632855
0.630937
0.0618
0.0666814
0.0279666
0.0500541
0.0448757
0.838292
0.837224
0.630627
0.627224
0.644009
0.663231
0.657949
0.380622
0.694897
0.704404
0.69307
0.863289
0.858334
0.866723
0.980493
0.943161
1.0435
1.06691
-0.00281174
-0.00353567
0.0748312
0.0677058
0.0826689
0.593637
0.58567
0.612444
0.601065
0.603489
0.349368
0.216174
0.526174
0.554219
-0.166138
-0.239177
-0.328924
-0.359567
-0.473159
0.718094
0.796436
0.795928
-0.0936659
-0.0264495
-0.158308
0.0573249
-0.00765437
0.607007
0.613985
0.608344
0.623992
0.618723
0.620312
0.632701
0.62977
0.63129
0.567079
0.669633
0.437157
0.398006
-0.146401
-0.0492716
-0.149387
0.0488121
0.0548321
0.170807
0.197509
0.147311
0.136228
0.0602513
0.0686013
0.0647904
0.0767178
0.0746167
0.542819
0.533152
0.561466
0.568628
0.610769
0.611694
0.614661
0.613339
1.02556
1.04804
1.0564
1.03012
-3.4268
-6.48156
0.136798
0.277425
-0.00839425
0.00743068
-0.00351368
0.0459751
0.0112078
0.00878868
0.110674
0.106827
0.105242
0.107478
0.739398
0.740245
1.08764
1.07894
1.05153
0.993893
0.616418
0.618538
0.62406
0.619546
0.0714723
0.0714702
0.0751204
0.825354
0.832962
0.831482
0.344538
0.259333
0.430931
0.458928
0.724379
0.710681
0.723137
0.754523
0.789326
1.07332
1.09117
1.09146
1.09948
1.14468
1.15767
1.12328
0.574066
0.583505
0.579077
0.615599
0.613309
0.61421
0.609897
0.611226
0.608572
0.0460541
-0.314036
0.617838
0.633858
0.610231
0.61957
0.790339
0.856193
0.778209
0.787209
0.787596
0.124699
0.0637273
0.354747
0.318944
0.484863
0.520017
0.497637
0.996483
0.958445
1.00835
0.981599
0.942027
0.967901
-0.353068
-1.59421
-0.853135
0.635086
0.44487
0.532961
0.121832
0.110938
0.118903
1.06694
1.16101
0.717999
0.904705
0.953793
0.828932
0.860597
0.916143
0.839915
0.874874
0.909881
0.892444
0.674705
0.632261
0.635354
0.918242
0.969931
0.239953
0.189895
0.134516
0.216556
0.270393
0.247327
1.1146
1.02411
1.09537
0.626829
0.627433
0.00570724
0.0440998
0.631607
0.631804
0.0501819
0.0808322
0.519011
-0.726012
0.219316
0.619753
0.610113
0.627011
0.0145394
0.471017
0.0640992
0.163147
0.11451
0.621575
0.558616
0.520552
0.0700815
0.0806058
0.061672
-0.119336
0.624342
0.622497
0.62652
0.627576
0.628209
0.0552411
0.034959
0.0246914
0.0598623
0.0559505
0.0539983
0.591808
0.608911
-0.0669673
0.62664
0.62884
0.62865
0.621503
0.627376
0.625289
0.0816021
0.0833974
0.0709885
0.333566
0.454459
0.764243
0.865452
0.734254
0.501993
0.251655
0.664615
0.730219
0.634636
0.789845
0.787393
0.808889
0.288207
0.130759
0.291138
0.231218
0.617943
0.616308
0.608503
0.605492
0.621954
0.620126
0.624549
0.621472
0.624401
0.62585
0.0580966
0.0366887
0.019759
-0.0499886
0.426927
0.694646
0.360179
0.403025
0.245151
0.0717161
0.0691395
0.0643293
0.0617342
0.115127
0.0973782
0.158629
0.161455
0.13617
0.113318
0.105458
0.0948033
0.0888592
0.615126
0.613638
0.619984
0.628399
0.56801
0.571722
0.537678
0.557679
0.543362
0.485644
0.520225
0.49565
0.0667052
0.0790441
0.0472654
0.0865468
0.0994925
0.0819919
0.0735305
0.0648989
0.0693486
0.0677642
0.071262
0.0745472
-0.0783563
-0.192113
1.08434
1.01836
0.212378
0.613351
0.619911
0.61654
0.621508
0.624572
0.625432
0.623205
0.619782
0.609513
0.611342
0.60781
0.608356
0.00015389
-0.144871
0.0254781
-0.0363192
0.223637
0.720422
0.466321
0.395606
0.396065
0.621236
1.03623
0.805107
0.795042
0.833021
-0.263027
0.116544
-0.19986
0.39133
0.213537
0.762143
0.813675
0.837693
0.782318
0.73421
-0.154965
0.632393
0.0463523
0.09065
0.29105
0.182771
0.810855
0.771388
0.777748
0.796195
0.817422
0.774585
0.755324
0.752466
0.792281
0.797286
0.595239
0.36902
0.313798
0.280897
0.756269
0.635436
0.68921
0.603341
0.612774
0.615569
0.614088
0.596611
0.603944
0.599602
0.60549
0.608632
0.617946
0.618506
0.61353
0.615823
0.0612379
0.0584332
0.0826672
-0.0375614
-0.027086
-0.0979258
0.0402533
0.162405
0.131284
0.328968
0.409558
0.138606
0.0393193
0.0660542
0.0879495
0.264926
0.322207
0.180214
0.263477
0.255867
0.238572
0.356578
0.355055
0.0876607
0.0768138
0.0800823
0.0806188
0.131229
0.197858
0.216061
0.109595
0.103897
0.0733177
0.0788028
0.0819141
0.0805029
0.0815984
0.121306
0.0294417
0.0815119
0.103105
0.114847
0.111045
0.0980749
0.608384
0.610349
0.610136
0.617993
0.634544
0.650111
0.609092
0.590111
0.580896
0.583659
0.557117
0.567507
0.563002
0.575749
0.596488
0.60531
0.603808
0.606444
0.589679
0.591171
0.578217
0.581731
0.55913
0.540507
0.52836
0.0681922
0.0749326
0.0968736
0.0491169
0.0849808
0.0888036
0.115256
0.12483
0.110983
0.104745
0.105112
0.0845109
0.0899629
0.0188248
0.101113
-0.0872749
-0.122773
-0.19745
0.987697
1.09349
0.911119
0.679997
0.692726
0.936492
1.01877
0.651499
0.821309
0.851706
0.688415
0.934864
0.618388
0.617941
0.615486
0.614999
0.616351
0.0902628
0.196753
0.196742
0.259787
0.369687
0.491723
0.402625
0.274649
0.407221
0.398472
0.714553
0.732595
0.679287
0.704083
0.701994
0.529996
0.607658
0.663034
0.616898
0.660431
0.680489
0.645158
0.672151
0.621129
0.575327
0.576269
0.523915
0.536918
0.517027
0.500263
0.608204
0.585023
0.595567
0.586628
0.606985
0.631182
0.625348
0.656286
0.667114
0.591547
0.55077
0.557911
0.589437
0.55058
0.564584
0.579278
0.318405
0.248648
0.284677
-0.0052068
0.0794592
0.00390794
-0.0285711
0.0893681
0.387817
-0.354509
-0.414051
-0.97075
0.575813
1.10066
0.766056
0.709499
0.813677
0.789133
0.789685
0.821478
0.824712
0.74658
0.76403
0.771102
0.721226
0.743276
0.773139
0.768641
0.619773
0.477822
0.468433
0.43296
0.311096
0.34873
0.550767
0.465395
0.392498
0.407712
0.568198
0.462658
0.526156
0.555153
0.475385
0.448909
0.644369
0.715751
0.704889
0.678404
0.597939
0.609285
0.638972
0.673158
0.698287
0.734889
0.605088
0.610948
0.6122
0.609728
0.606899
0.609754
0.609916
0.612522
0.613313
0.616409
0.615353
0.0671023
0.0782544
0.0684538
0.0586205
0.0798753
0.076605
0.128672
0.116597
0.0978841
0.104739
0.0769888
0.0770421
0.0813995
0.0892827
0.20255
0.205318
0.18811
0.155675
0.331756
0.470949
0.534286
0.41192
0.320788
0.347733
0.361192
0.0882528
0.118173
0.106837
0.142567
0.138515
0.0822872
0.0748332
0.0766776
0.0828756
0.0969745
0.0762572
0.0856683
0.0918177
0.0823551
0.0777951
0.0697298
0.592605
0.586315
0.586551
0.581423
0.580604
0.593036
0.597424
0.599797
0.605161
0.606879
0.597708
0.602818
0.606322
0.107853
0.0836262
0.0783777
0.091475
0.0907797
0.0946395
0.0912983
0.218334
0.146066
0.145149
0.102648
-0.0272635
0.0302977
0.585175
0.583571
0.591124
0.810714
0.664175
0.589339
0.689382
0.789894
0.364648
0.557093
0.392763
0.973845
0.865553
1.01051
0.621031
0.324968
0.484034
0.541844
0.332209
0.410138
0.412989
0.315312
0.343281
0.36539
0.468637
0.360026
0.341916
0.0923383
0.288687
0.405414
0.391688
0.516923
0.584677
0.343238
0.270004
0.238501
0.704951
0.725587
0.750093
0.715706
0.741488
0.666669
0.656502
0.675063
0.683582
0.678348
-0.695767
-0.406886
-1.31981
-0.611644
-0.172527
0.606066
0.571566
0.849772
0.736912
0.79726
0.78359
0.754289
0.718171
0.729078
0.76161
0.464723
0.569803
0.546227
0.550265
0.443986
0.388963
0.685149
0.677064
0.716649
0.739534
0.706243
0.741504
0.602874
0.602534
0.60212
0.598902
0.597208
0.599199
0.163343
0.13161
0.17386
0.154828
0.130345
0.113769
0.10895
0.102595
0.0914935
0.0873394
0.104602
0.106129
0.24993
0.189009
0.120195
0.147846
0.0876658
0.0180775
-0.000487525
0.102602
0.19493
0.195716
0.501213
0.738253
0.559704
0.728804
0.595746
0.626884
0.58295
0.578981
0.607243
0.486841
0.561018
0.367903
-0.165807
-0.0467777
0.830713
0.895335
0.670353
0.539962
0.249495
0.379755
0.647842
0.574533
0.617131
0.688727
0.679722
0.0979579
0.128027
0.457331
0.659382
0.330648
0.263387
0.279295
0.441768
0.395667
)
;

boundaryField
{
    wall-4
    {
        type            zeroGradient;
    }
    velocity-inlet-5
    {
        type            zeroGradient;
    }
    velocity-inlet-6
    {
        type            zeroGradient;
    }
    pressure-outlet-7
    {
        type            fixedValue;
        value           uniform 0;
    }
    wall-8
    {
        type            zeroGradient;
    }
    frontAndBackPlanes
    {
        type            empty;
    }
}


// ************************************************************************* //
