/*--------------------------------*- C++ -*----------------------------------*\
| =========                 |                                                 |
| \\      /  F ield         | OpenFOAM: The Open Source CFD Toolbox           |
|  \\    /   O peration     | Version:  4.0                                   |
|   \\  /    A nd           | Web:      www.OpenFOAM.org                      |
|    \\/     M anipulation  |                                                 |
\*---------------------------------------------------------------------------*/
FoamFile
{
    version     2.0;
    format      ascii;
    class       surfaceScalarField;
    location    "36";
    object      phi;
}
// * * * * * * * * * * * * * * * * * * * * * * * * * * * * * * * * * * * * * //

dimensions      [0 3 -1 0 0 0 0];

internalField   nonuniform List<scalar> 
1300
(
3.75095
5.62643
-3.01371
3.75095
-6.55391
5.62643
-4.46552
4.46552
-0.938151
0.938151
1.87647
1.87448
-3.0424
3.0424
-2.44628
2.44628
-2.55115
2.55115
-5.24643
5.24643
-5.06882
5.06882
4.6604
-4.6604
-6.0095
6.0095
-1.30392
1.30392
-3.89177
3.89177
3.16878
-3.16878
-2.28853
2.28853
-0.257804
0.257804
-0.553159
4.30411
3.19779
3.19779
-2.03224
2.03224
-4.86379
4.86379
6.21756
-6.21756
4.60075
-4.60075
-1.58704
-2.10194
1.15756
-10.8708
-5.39635
-5.39635
-8.44021
8.44021
-2.81378
2.81265
2.94413
-2.94413
-1.86086
1.86086
-4.38361
-0.0819136
-4.38361
4.46861
-0.00308737
4.46861
-1.03518
0.0970316
-1.03518
3.94292
-3.94292
0.809173
0.128979
0.809173
3.06498
-3.06498
-1.87715
3.75362
1.87381
-1.87178
6.17589
-1.87918
3.75366
-5.935
5.935
-3.247
0.2046
-3.247
2.87114
0.17126
2.87114
-6.73221
6.73221
-2.51759
0.0713126
-2.51759
2.42264
0.0236356
2.42264
2.86604
-2.86604
-2.65328
0.102131
-2.65328
2.44069
0.110463
2.44069
0.35368
5.27275
-5.98011
8.79276
-5.27275
0.0263159
5.20826
0.0381729
5.20826
-5.10591
0.0370887
-5.10591
5.01187
0.0569533
5.01187
4.73663
-0.0762334
4.73663
-4.78514
0.124734
-4.78514
-3.87382
-4.69309
-6.21366
0.204167
-6.21366
-1.30013
-0.00378992
-1.30013
1.26102
0.0428961
1.26102
-3.60572
3.60572
-4.2483
0.356523
-4.2483
3.12266
0.0461175
3.12266
1.86902
1.88193
5.61997
-5.61997
2.45119
-2.3358
0.0472718
-2.3358
-2.31486
-2.28589
2.31486
-0.0263339
-0.51537
0.257566
-0.51537
3.16005
0.0377398
3.16005
2.28595
0.154742
-2.28595
0.253708
3.21639
-3.21639
1.37483
0.657406
1.37483
-5.5671
5.5671
4.95378
0.0580819
-4.95378
0.0899991
6.15676
0.0608002
6.15676
-6.19988
-0.0176717
-6.19988
2.43779
-4.53973
-2.46497
5.75472
0.254777
-5.75472
0.358368
2.91435
0.029777
2.91435
-2.91926
2.91926
-2.98368
0.0395481
-2.98368
-2.24508
0.384223
-2.24508
1.57569
0.285171
1.57569
-4.25182
-0.131792
-4.25182
-4.38234
0.134049
4.38234
0.0862655
1.16631
-1.16631
-1.14904
0.113855
-1.14904
-4.09387
-0.15795
4.09387
-0.150944
-3.78847
-0.154454
-3.78847
-3.02377
0.0400957
3.02377
0.0412071
3.1131
0.0469538
-3.1131
0.0481216
-1.87089
3.75282
-1.88006
3.75387
-5.55908
-0.375924
-5.55908
6.24377
-0.30877
6.24377
3.58307
0.308702
-3.58307
0.336071
2.73667
0.134469
2.73667
-6.70476
-0.0274446
-6.70476
6.70106
0.0311462
6.70106
2.61913
0.117537
-2.61913
0.101544
2.40631
0.0163365
2.40631
2.88152
-0.0154798
2.88152
-2.86584
-0.000203647
-2.86584
2.79848
-2.79848
2.72995
0.0685253
-2.72995
0.0766702
-11.1327
11.115
-0.035122
-11.0976
5.17314
5.17314
4.15214
0.584495
4.15214
-5.00066
0.215529
-5.00066
3.20444
-5.66941
3.50524
-7.37905
5.106
-15.9768
4.25814
-8.95123
6.53741
-6.53741
6.39159
0.145812
-6.39159
0.17793
-1.32224
0.0221146
-1.32224
-3.00645
-0.599273
-3.00645
4.25478
-0.649059
4.25478
-3.02781
3.02781
-3.07674
0.0489291
3.07674
0.0459236
2.40076
0.00554046
-2.40076
0.0649663
0.669554
0.139618
-0.669554
0.154185
3.39224
-0.175852
3.39224
-3.03743
-0.178957
-3.03743
-1.3455
0.0232605
1.3455
0.0293327
-5.81574
0.24864
-5.81574
-11.1909
0.0932883
-11.1527
-6.1066
-6.1066
2.33362
11.1264
-2.88791
0.0220689
2.88791
0.0264422
2.97449
0.0533191
-2.97449
0.0552329
-2.86076
0.0622842
2.86076
0.0584959
-2.63015
0.385068
-2.63015
-1.16511
1.16511
-1.34176
0.176653
1.34176
0.233929
1.39982
-0.233512
1.39982
1.2181
0.0429204
-1.2181
0.0690625
-3.66604
-0.122432
-3.66604
6.46824
-0.224468
6.46824
-2.93442
-0.103012
2.93442
-0.0528928
-0.0334214
11.1484
-5.13972
0.03381
5.13972
-11.2092
11.2431
-3.25856
0.628403
3.25856
0.893585
5.29044
0.276653
-5.29044
0.289779
6.63949
0.0615745
-6.63949
0.102081
-2.52752
-0.478932
-2.52752
-4.99427
-0.564811
4.99427
-0.739487
-11.4731
-0.205047
11.6781
-11.4161
6.02078
0.135973
-6.02078
11.379
-1.09409
-0.0722179
1.09409
0.0710211
1.6958
-0.295983
1.6958
3.56303
-0.170795
-3.56303
-0.103004
-6.61816
-0.0866002
6.61816
-0.149922
-2.08966
-0.437854
2.08966
-0.393863
-4.26686
4.3046
1.90902
-2.42078
-2.11895
-4.70667
1.85156
1.90127
4.30275
-10.1578
-5.81903
-9.79942
7.26193
-6.97215
-9.27471
9.19847
7.60772
-7.76218
-5.78711
5.83303
6.48251
-6.4413
1.87869
1.87493
7.84996
-7.64536
-15.6765
15.3006
7.46348
-7.39216
15.8239
-15.8514
-17.8644
17.926
-5.71896
5.82109
-6.72524
6.72503
-6.94363
6.89073
-3.53567
-3.84338
13.0913
-12.8871
8.17179
-8.12452
-8.49661
8.85314
3.38195
0.922659
3.4289
-1.88235
3.76104
-1.87131
3.78033
2.67443
-6.2101
2.99498
-5.11393
3.78224
4.38955
-3.75591
-0.950765
-5.91838
5.94815
-5.82272
5.88121
8.99176
-9.07367
-1.8852
3.76013
-1.86867
3.76993
-3.42653
-2.36058
3.38042
0.922336
7.9675
5.12378
-8.22228
-1.57714
-7.91374
7.74294
-8.16379
7.98483
-0.437101
5.81644
-5.37934
4.42668
-1.55367
7.3701
5.70827
5.9238
5.8648
-5.58815
1.10735
-6.48669
-6.39669
-2.52942
2.64328
2.45493
-2.32595
5.97483
1.63289
5.82389
-5.60195
-2.16023
-5.72438
3.82187
2.01116
3.8708
4.0765
2.40601
4.1166
3.03077
-3.03556
0.00478555
-3.05626
6.08703
0.724572
-5.41684
-4.4945
4.91059
2.93937
5.08185
-5.45301
-2.19235
-5.11694
-9.55083
-6.12565
-10.1156
10.126
5.17453
9.81726
-12.0054
11.8554
4.75095
2.71253
4.77459
-4.90121
-2.49095
-4.79967
11.6476
-2.57583
-9.07175
-10.3385
-7.52593
10.3074
5.51659
10.9441
6.98192
11.0462
4.42844
7.21913
-9.94503
2.41911
-3.86892
-1.85004
-3.79225
3.69429
2.1268
3.80475
-4.21248
-2.51276
-4.19041
-4.28663
-2.65699
4.30211
2.42292
-4.39924
-3.76455
4.50225
2.38848
4.41294
-10.232
4.53829
-8.38167
-9.19451
-3.6926
-9.01658
3.64417
2.90081
-6.54498
-2.56593
8.63063
-4.24108
7.67986
-4.98041
-3.14411
-4.91544
-6.77692
-1.71969
-6.64287
-8.84926
8.37032
-9.18482
8.53576
12.6248
-5.71164
-6.91314
-3.96841
-2.47289
3.92029
-0.491391
-3.7108
3.71558
0.0502451
3.83058
4.75323
4.26184
-3.88799
-1.93473
-3.83276
3.83305
2.04816
3.89534
6.7679
2.22386
6.76481
-6.48823
-2.58544
-6.62002
9.03944
-8.65522
2.89124
-2.86798
5.32577
2.65906
-5.14991
-2.76382
6.20058
-3.16893
-3.03165
-12.2093
10.5748
1.63453
-4.83919
-0.412508
-0.154704
-5.49446
-3.78025
5.36972
0.554074
11.1288
7.34859
-5.51203
5.76067
6.16608
6.22417
-0.172527
5.77742
-5.14901
5.32256
-2.4103
-2.91225
5.33059
-5.48855
-1.28942
-5.30551
4.01608
0.335341
1.69135
-1.43379
-1.98589
-0.543532
-1.91683
1.47148
0.983453
1.6111
0.963334
1.67994
-2.95844
0.548977
2.40946
-1.9951
-1.77698
-3.70453
-1.07648
4.78101
5.65494
2.088
-5.55194
-0.172446
2.67129
-2.62839
-0.761734
-2.94279
2.15532
-2.91706
-3.68246
-1.88649
5.56896
-3.37126
-0.461494
3.31794
0.55286
-3.82506
-2.09332
3.78551
0.331086
-3.12466
6.18866
-3.064
-5.05938
2.52899
3.55805
4.54015
-4.78904
2.44614
2.3429
-1.23099
4.19722
0.884637
4.33169
-6.71804
4.52569
5.72737
3.12576
-6.03608
0.919137
-5.79891
8.44055
-7.26066
-1.1799
4.09095
4.3496
7.15967
5.46511
-5.73679
12.8965
-1.17825
-6.0824
6.97716
-3.8514
4.76493
-8.61633
-10.23
4.14765
-9.23855
11.0041
-1.76555
-3.6319
-8.37345
12.8704
-1.21934
-11.6511
8.59792
-4.15549
-4.24437
8.39986
-6.73132
6.73532
-1.94561
-4.78971
-10.1399
-5.7115
10.2265
1.62895
-9.82069
12.2398
-2.60156
4.05837
0.716219
4.0747
3.22801
-5.37822
2.15021
3.50331
-5.44893
2.06186
-7.44008
-6.80775
12.1662
-5.35844
-10.5004
-9.56629
-0.934067
2.49764
9.74216
-9.47956
7.39089
2.08867
3.30948
0.585859
-3.378
-0.414245
0.256828
4.53175
-4.78857
4.06158
4.21632
3.35225
1.1795
3.84034
2.10781
-3.86678
-0.323622
-4.15423
1.49723
-1.7313
-3.67402
5.17125
-4.06612
0.392099
-2.73547
-3.51141
6.24688
-4.58551
3.03822
3.15044
5.08637
-4.91475
1.40334
-2.40267
-2.51207
2.66279
-4.39409
1.96826
3.20299
4.35675
0.592197
6.0139
6.15229
-8.91471
0.53304
11.2761
-9.69893
2.49715
8.54901
-9.88805
0.321758
-8.69482
1.23002
-5.47109
-5.31496
5.08999
-6.80968
-3.52634
6.13848
0.626326
-6.22475
-0.41812
-6.02737
-2.82189
-6.46523
-3.05308
-6.13174
-8.78987
-1.63932
-7.15055
6.73101
-6.68091
-3.43474
7.4204
1.11536
-7.38818
7.31596
-7.4663
7.17031
0.0949399
3.62064
4.35678
1.88389
-2.38965
4.27354
-5.06071
7.28457
-8.53489
3.47418
4.00282
-6.58826
-4.53207
5.02976
4.00968
5.31493
8.9092
-10.4147
1.50554
-10.7323
12.0424
-1.31019
-16.4876
5.75539
-7.57844
2.61506
0.276187
2.63717
0.629482
2.47211
-3.10159
-2.2385
-2.20917
-2.35537
-3.44568
5.80105
1.1554
-3.45665
2.30125
-3.51065
4.66606
-0.0766297
-3.38002
5.30709
-2.83499
5.58328
-3.58728
1.996
3.36559
5.73539
-2.3698
4.36812
-1.70906
1.84138
-4.21118
-1.6043
-2.96873
5.09553
-3.27815
3.67025
-0.306955
3.97721
-4.08499
0.91606
-0.73274
3.48358
3.73729
4.2783
-3.0988
2.96454
-4.6736
-1.24664
-4.0814
-0.878408
-0.295425
-3.7503
4.04572
6.03144
-6.32687
-5.23139
9.54371
-4.31232
7.72412
-5.39065
-2.33347
-4.24665
-4.40856
3.86158
1.91583
9.63996
0.234365
-5.62502
-4.91465
-4.02106
3.20323
2.11932
-1.9064
3.54093
2.06111
-0.369752
0.551723
1.05937
1.8682
-1.31647
0.220229
1.64797
-1.21356
1.95847
0.712813
-2.00139
0.0845646
-1.34943
3.50475
1.06003
-2.04348
0.72701
1.06475
-3.47505
4.89463
-2.50981
-2.38482
5.95938
1.14712
-3.65693
4.15838
-3.82304
2.33348
-3.40996
-1.32346
-5.1465
-3.51361
-2.58098
4.88223
-3.22007
5.30807
1.19977
-5.13562
6.33539
-3.57439
1.68789
-3.09266
3.80547
-1.09167
-2.00099
2.83123
2.73773
-2.95346
0.0106701
-0.122238
2.34508
-2.46732
-0.571976
-2.56708
-4.57302
4.90411
-2.10653
4.55267
2.16701
-1.91503
6.4677
1.81076
-3.72579
-3.24863
-3.71012
-1.38289
3.15726
-0.569781
-4.22989
-5.35949
4.11235
0.219338
-6.84422
7.64258
-0.798365
-3.90485
-0.620843
4.71179
-5.92474
0.475809
-3.86287
3.77971
4.66435
4.88368
-11.4408
-0.210347
-6.26624
1.15294
-7.41918
5.50255
-3.60459
7.75224
-10.4072
6.97249
-9.29186
6.57234
-0.846839
6.26292
-4.11271
2.80883
-8.52033
-6.89139
5.4176
-2.70507
6.13382
-3.09323
9.22704
-5.69479
5.19261
4.03443
-0.880993
-4.03445
-5.23841
4.35741
-0.0457954
4.02891
4.97144
-2.86363
4.64782
2.25903
-4.66171
-2.13505
-6.5013
1.8396
-3.35086
-1.91657
3.75617
3.16981
3.75566
1.24409
-3.34142
7.26463
-8.19869
-1.90619
-3.40878
5.26484
-0.907426
3.35037
-6.75914
-2.12073
4.87668
-0.839638
-4.03705
0.83496
-4.3613
1.64726
-6.00856
5.16243
-5.58055
2.18928
-9.76772
-5.1989
-5.12788
-2.23035
-5.23594
-7.6019
5.37155
-1.84651
5.46946
-8.56387
7.72423
-3.47858
8.85012
-5.43203
-1.03319
5.8259
1.34441
10.1945
0.170758
-4.70283
-1.88761
3.94704
-2.05943
1.31562
-3.57954
0.367502
2.48803
3.47136
-6.50411
-0.0841542
-4.78698
-3.92557
7.93524
5.61815
11.6496
1.23484
9.11626
-1.18102
10.3511
4.13391
4.36784
-3.02253
4.52807
1.02319
4.49737
-0.83605
2.83205
1.80112
1.79733
0.831059
2.32924
1.40805
3.2453
0.143714
-2.06545
4.63205
-8.65311
-0.992967
-8.06862
1.12986
5.82674
-4.69688
3.08848
-0.96916
1.02905
0.113066
-1.63193
1.51886
-2.79919
-2.00168
-0.353709
-1.63286
2.35987
1.8719
-2.00616
-0.793029
0.340394
-3.854
3.06956
-3.05889
-0.321164
6.01423
-2.76117
0.293851
-1.07327
-2.27323
-2.81676
2.7322
6.17634
0.291357
3.11234
5.19547
3.10215
0.238522
3.88708
-5.65263
-3.55299
-5.86298
-0.360431
4.35136
1.77139
7.97077
5.80582
4.8984
-1.86075
-10.0594
6.53933
-2.01126
5.22914
-1.19209
-4.81647
4.9739
2.31067
-5.60022
0.0196793
-4.79679
-6.80804
-0.554849
8.27908
-9.63969
8.6065
5.78461
1.36594
-4.40337
-0.724509
4.22672
0.141127
10.4922
-1.1822
-6.74234
7.92454
-4.64453
3.65157
0.787359
2.75357
2.30622
1.33706
-5.40528
-10.1022
-1.92418
-1.55088
-4.309
0.472008
-2.34391
6.27316
-2.62159
3.93968
5.30295
6.332
-2.15077
-4.17609
6.46309
-2.52341
3.80859
)
;

boundaryField
{
    wall-4
    {
        type            calculated;
        value           uniform 0;
    }
    velocity-inlet-5
    {
        type            calculated;
        value           uniform -3.75095;
    }
    velocity-inlet-6
    {
        type            calculated;
        value           uniform -5.62643;
    }
    pressure-outlet-7
    {
        type            calculated;
        value           nonuniform List<scalar> 8(3.01371 6.55391 3.68898 9.71326 8.56691 4.90276 6.70968 9.36414);
    }
    wall-8
    {
        type            calculated;
        value           uniform 0;
    }
    frontAndBackPlanes
    {
        type            empty;
        value           nonuniform 0();
    }
}


// ************************************************************************* //
