/*--------------------------------*- C++ -*----------------------------------*\
| =========                 |                                                 |
| \\      /  F ield         | OpenFOAM: The Open Source CFD Toolbox           |
|  \\    /   O peration     | Version:  4.0                                   |
|   \\  /    A nd           | Web:      www.OpenFOAM.org                      |
|    \\/     M anipulation  |                                                 |
\*---------------------------------------------------------------------------*/
FoamFile
{
    version     2.0;
    format      ascii;
    class       volVectorField;
    location    "36";
    object      U;
}
// * * * * * * * * * * * * * * * * * * * * * * * * * * * * * * * * * * * * * //

dimensions      [0 1 -1 0 0 0 0];

internalField   nonuniform List<vector> 
918
(
(0.985093 -0.000545877 0)
(0.00478845 2.96626 0)
(-0.0192622 0.794708 0)
(0.979828 0.00240884 0)
(-0.0927612 1.75647 -1.4936e-20)
(-0.00705001 2.94891 -1.17681e-18)
(0.828191 1.18711 1.47641e-19)
(0.306205 0.147725 -7.24738e-21)
(0.999905 -0.000303438 0)
(0.0418572 0.862431 0)
(0.00940663 0.673885 0)
(0.731133 -0.0111187 0)
(0.0115164 2.93017 0)
(0.00266517 2.79516 0)
(-0.0199087 3.15343 3.06259e-19)
(-0.00953595 1.83132 -3.49088e-20)
(0.382048 0.0477568 4.78313e-19)
(0.183535 1.20644 9.11441e-20)
(0.961989 0.00388528 0)
(0.00641671 0.628277 0)
(0.074037 0.183606 -3.43303e-19)
(1.00217 -0.00520272 0)
(1.00076 -0.0101583 0)
(0.975968 -0.00653545 0)
(0.578158 -0.0261045 0)
(0.0185769 2.63671 0)
(-0.0149588 2.91021 4.19017e-19)
(-0.016302 0.81857 0)
(-0.0575632 0.989881 0)
(-0.0152651 0.799174 0)
(-0.136927 2.57475 0)
(-0.0951181 1.91723 1.1602e-20)
(-0.0435497 1.70117 0)
(-0.0204475 2.98751 -4.26061e-23)
(-0.0169832 3.00539 9.34802e-19)
(0.00201133 3.00015 0)
(0.8705 -0.00875902 0)
(0.436381 0.97145 1.0102e-19)
(0.803307 1.20299 -1.30834e-19)
(0.950639 1.04006 1.66003e-19)
(0.674206 1.29963 -3.36694e-20)
(0.672897 1.28732 2.00595e-19)
(0.35057 0.231405 7.06644e-21)
(0.319919 0.120939 0)
(1.13264 0.574121 0)
(0.318808 0.224175 3.22805e-20)
(0.273501 0.153762 -3.35177e-20)
(0.919516 -0.00726955 0)
(1.00028 0.000150206 0)
(0.999915 0.000339226 0)
(1.00352 -0.00768036 0)
(1.00096 -0.000947284 0)
(1.00019 2.22392e-05 0)
(0.0655614 1.789 -3.92761e-19)
(0.0276708 1.0361 0)
(0.0693719 0.924621 0)
(0.0134003 0.987925 0)
(0.0302169 0.805498 0)
(0.0217514 1.99303 0)
(0.0207366 0.837541 0)
(0.0297862 0.695887 0)
(-0.000315963 0.828179 0)
(-0.000655036 0.663831 0)
(0.836973 -0.014225 0)
(0.84951 0.0277089 0)
(0.766159 -0.00167695 0)
(0.822808 0.0364671 0)
(0.698486 -0.0139893 0)
(0.0153272 3.00067 4.28752e-19)
(0.0116916 3.0084 0)
(0.00650681 3.00254 0)
(0.014144 2.99721 4.83355e-24)
(0.00835551 2.95852 -6.48061e-19)
(0.015207 2.98189 0)
(0.0112593 2.90364 0)
(0.0250603 2.93041 9.74858e-25)
(0.00510037 2.82527 0)
(0.0316059 2.91616 0)
(-0.00474378 2.74494 0)
(0.303897 3.54642 0)
(-0.145881 3.6233 0)
(0.135583 3.24596 -2.82691e-19)
(-0.01009 2.98579 0)
(-0.0914322 2.28936 0)
(-0.027949 2.07123 3.44223e-20)
(0.0174608 1.88181 -3.8385e-20)
(0.479114 0.144593 -1.65593e-19)
(0.375153 0.0307758 -1.59767e-19)
(0.46377 0.166112 -4.97924e-19)
(0.365489 0.0696244 -3.28514e-19)
(0.187228 0.935259 0)
(0.244237 1.34462 -1.19285e-19)
(0.363964 1.29597 2.03745e-19)
(0.987365 0.00824092 0)
(0.94131 0.00548769 0)
(1.00031 0.000430941 0)
(1.00326 0.00949571 0)
(1.00287 0.00785318 -1.29168e-18)
(0.991774 0.0098867 9.86329e-19)
(-0.00211029 0.789382 0)
(-8.16551e-05 0.64309 0)
(0.0181798 0.84364 0)
(-0.0179886 0.784507 0)
(-0.000501093 0.633271 0)
(0.123501 0.191727 1.06422e-19)
(0.176949 0.172369 0)
(0.993353 -0.0082578 0)
(0.954458 -0.00615931 0)
(0.775245 0.0444179 0)
(0.712165 0.0571179 0)
(0.657836 -0.0235115 0)
(0.955416 -0.0077302 0)
(0.62351 0.0758656 0)
(0.448318 -0.00429253 6.98751e-19)
(-0.0364722 2.86377 3.25519e-19)
(0.0419667 2.9091 0)
(0.055196 2.88479 0)
(-0.00446799 2.69846 0)
(-0.013522 2.98507 3.97993e-19)
(-0.0181519 2.89515 0)
(-0.0158979 2.988 -1.23338e-18)
(-0.0131309 2.92538 4.2306e-19)
(0.0437002 1.21039 0)
(-0.0126117 1.31461 0)
(-0.0271478 2.03555 -8.72483e-22)
(-0.06421 1.96049 0)
(-0.0349655 1.77928 0)
(0.937854 -0.00777952 0)
(0.85667 -0.00798152 0)
(0.86281 0.00603288 0)
(0.949 -0.00785805 0)
(0.88354 -0.00741037 0)
(0.545245 1.16604 -1.27704e-19)
(0.595083 1.2054 0)
(0.404011 0.923928 1.77329e-20)
(0.343841 0.778854 0)
(0.913539 1.07642 -4.2576e-20)
(1.02115 0.880839 8.45905e-20)
(0.363125 1.38756 0)
(0.529286 1.36245 0)
(0.533777 1.31522 0)
(0.119479 0.208374 -1.41095e-19)
(0.387367 0.221116 0)
(0.352206 0.10887 9.25232e-20)
(0.996842 0.934611 0)
(1.06607 0.787008 0)
(1.08833 0.728202 -5.68132e-20)
(1.11178 0.629331 0)
(1.15285 0.411314 2.34533e-20)
(0.957549 -0.00851233 0)
(0.962292 -0.0102857 0)
(0.90188 -0.00738145 0)
(0.984329 -0.00920003 0)
(0.974799 -0.00937247 0)
(0.937406 -0.00599167 0)
(1.00017 0.00215146 0)
(1.00087 0.00142132 0)
(0.99987 0.000908833 0)
(0.0269756 2.05662 2.13484e-19)
(0.0989445 1.73979 0)
(0.0108135 2.16489 3.46584e-19)
(0.0490109 1.85128 -2.99579e-19)
(0.100958 1.21674 -7.37789e-20)
(0.0406285 1.10152 0)
(0.116677 1.06584 0)
(0.00963107 0.937433 0)
(0.0158726 0.768409 0)
(-0.00697331 2.20804 -9.22604e-22)
(0.0274501 1.98145 0)
(-0.00816393 2.18501 -4.94416e-20)
(0.0289038 1.99157 9.42425e-20)
(0.0109982 0.899555 0)
(0.0151486 0.867602 0)
(0.0258947 0.731839 0)
(0.00201667 0.825401 0)
(-0.0112088 0.655798 0)
(0.934499 0.00888497 0)
(0.841577 -0.0148842 0)
(0.925044 -0.00138836 0)
(0.838656 -0.0119973 0)
(0.811394 0.00158213 0)
(0.901881 0.0191627 0)
(0.87912 0.0232864 0)
(0.788149 0.000316829 0)
(0.00398443 3.06423 -3.82716e-21)
(0.0169203 3.05768 0)
(0.0153098 2.96898 0)
(0.00886193 2.87618 0)
(0.962437 3.9829 0)
(1.30706 3.24607 4.42172e-19)
(0.0690507 3.07657 0)
(-0.0249869 2.90787 0)
(0.107415 1.49199 0)
(0.0242361 1.96913 0)
(-0.0213216 1.79332 0)
(-0.0954601 2.52406 1.6138e-20)
(-0.0785264 2.41555 0)
(-0.134683 2.49836 0)
(0.0230219 1.96317 7.26329e-22)
(-0.017857 2.11097 3.80209e-20)
(-0.024995 2.08883 3.91321e-20)
(0.0244403 1.92985 0)
(0.503867 0.11984 2.48319e-19)
(0.389144 0.0110592 -2.44065e-19)
(0.27162 1.56679 0)
(0.244825 0.723377 -1.36152e-19)
(0.17703 1.65873 -4.53344e-19)
(0.20183 1.19162 4.54373e-19)
(0.90171 0.00590143 0)
(0.967362 0.0107007 0)
(0.974409 0.0106724 0)
(0.923195 0.00593868 0)
(-0.00522097 0.828404 0)
(0.00632276 0.806878 0)
(0.000670567 0.65579 0)
(0.275002 0.220731 2.97558e-19)
(0.228421 0.203011 -3.5206e-19)
(0.23443 0.168018 0)
(1.07584 0.0811444 1.53768e-20)
(1.05379 0.0352613 0)
(0.996982 0.0370405 0)
(0.894775 -0.00813318 0)
(0.528328 0.0906475 0)
(0.557666 0.072189 -1.11922e-18)
(0.412473 0.00289952 4.19935e-19)
(0.00905889 2.98121 3.40372e-19)
(-0.0331276 2.86682 1.91189e-20)
(0.00194526 3.04961 -8.065e-21)
(0.0208289 3.04322 2.97288e-19)
(-0.015354 2.9963 1.3854e-20)
(-0.0128048 2.94952 -5.58015e-23)
(-0.0175499 3.01148 -2.53547e-19)
(0.0142244 3.02295 1.82433e-19)
(0.00671057 3.03669 -2.96839e-19)
(0.932209 -0.00238955 0)
(0.938514 -0.00346478 0)
(0.843355 -0.00748321 0)
(0.956452 0.0114723 0)
(0.94285 0.0127604 0)
(0.881263 0.0055474 0)
(0.918163 0.0156275 0)
(0.926481 0.0146043 0)
(0.838459 0.00350305 0)
(0.759445 1.43257 -2.67653e-21)
(0.802537 1.52452 0)
(0.224717 0.356476 3.56479e-20)
(0.242756 0.711028 2.8535e-19)
(0.290334 0.767701 -1.6958e-19)
(0.305191 0.56298 3.30479e-19)
(0.331141 0.809097 7.30391e-19)
(0.131962 0.237845 1.6328e-19)
(0.435301 0.190046 3.48126e-19)
(0.411633 0.209181 9.03729e-20)
(0.36506 0.0883643 1.73288e-19)
(1.14443 0.468016 -1.94463e-20)
(1.15098 0.264599 -2.32662e-20)
(0.0023888 2.20754 1.40216e-19)
(0.0491322 1.91416 0)
(0.961391 0.0289101 0)
(0.936812 0.0116235 0)
(0.86157 -0.0183816 0)
(0.0111676 3.07443 0)
(0.0204936 2.94384 5.4649e-19)
(0.0171947 2.95625 0)
(0.00662094 2.85064 -5.4471e-19)
(0.00554149 3.09075 1.29687e-19)
(0.00602765 3.08201 0)
(0.887914 1.82836 -6.11765e-20)
(1.27204 2.37956 9.38735e-20)
(0.868084 1.93259 -4.54052e-19)
(0.020424 2.98228 -3.01325e-19)
(0.0363602 3.00331 0)
(-0.0328418 2.88051 0)
(-0.0096169 2.16401 -2.85552e-21)
(-0.0104459 2.13779 -7.9455e-20)
(0.0236806 1.98166 -1.90377e-21)
(0.276868 1.38284 4.44799e-19)
(0.197399 0.518364 -3.02667e-19)
(0.0522243 1.98496 3.48594e-19)
(0.153928 1.87846 -4.14555e-19)
(0.14845 1.46846 4.05874e-20)
(0.000653837 3.11892 -8.12032e-19)
(0.0153061 3.11787 9.14277e-19)
(-0.00949464 2.98108 3.6893e-19)
(-0.00404837 2.97801 -3.52729e-19)
(-0.0212369 2.88195 -3.75947e-19)
(0.00775722 3.09959 -9.68989e-19)
(0.00157733 3.10548 9.73687e-19)
(0.290042 0.725803 0)
(0.254444 0.723088 -5.88869e-19)
(0.11616 0.245722 2.61712e-19)
(0.349073 0.928911 4.86647e-19)
(0.180334 0.276039 -7.51415e-19)
(1.15149 0.173206 4.56517e-20)
(1.15436 0.314248 0)
(1.1351 0.124097 -2.4354e-20)
(-0.00240133 2.21989 -1.20272e-21)
(-0.00151893 2.2227 0)
(0.0296959 1.95394 0)
(0.350078 1.28597 -1.59787e-19)
(0.372005 1.12282 -3.46012e-19)
(0.186307 0.364568 6.17662e-19)
(1.00553 -0.0111881 0)
(1.00751 -0.00744502 2.40122e-19)
(0.0580601 1.23381 0)
(0.0147534 1.09993 0)
(1.00199 0.00344924 7.99616e-22)
(1.0038 0.0100317 4.85421e-19)
(-0.0859421 2.53335 -2.12952e-20)
(-0.0680353 2.548 0)
(0.0352604 3.17851 2.22368e-19)
(0.387206 3.48242 0)
(1.15325 0.64639 -4.44452e-20)
(1.0132 0.0136042 -7.60945e-22)
(1.02119 -0.0107511 0)
(1.00175 0.000100203 2.59335e-23)
(0.0973322 1.34626 0)
(0.156333 2.57808 0)
(0.0129299 1.29633 0)
(0.00248994 2.62928 5.34417e-20)
(-0.0246309 2.58203 4.00552e-20)
(1.00333 0.0283645 1.02419e-21)
(1.06148 0.00300829 0)
(1.09286 0.0213557 0)
(-0.00842674 1.92892 0)
(-0.0321606 2.57255 0)
(0.0420448 1.24579 0)
(0.302975 1.45938 -3.47684e-20)
(1.01123 -0.00990559 0)
(1.00939 -0.0153648 0)
(1.00239 0.000615519 3.04976e-19)
(1.00538 -0.00480525 -3.62054e-19)
(1.0012 -0.00105714 0)
(0.100905 1.62405 0)
(0.0986458 1.34179 0)
(0.0658858 1.52175 0)
(0.0431276 1.22228 0)
(0.0343161 1.13143 0)
(0.00407809 1.08046 0)
(1.0341 -0.00701489 0)
(1.02107 0.0161413 -3.57368e-22)
(0.804864 1.25327 6.5149e-20)
(1.00224 0.000368101 -3.04376e-19)
(1.00402 0.00533402 3.61544e-19)
(1.00118 0.00211733 0)
(1.01349 0.0105508 3.02209e-19)
(1.00856 0.00866788 -3.65392e-19)
(1.00929 0.0156538 0)
(-0.0453446 2.59262 0)
(-0.0574631 2.56361 3.80861e-20)
(-0.0485869 2.5779 -2.64565e-20)
(1.22228 0.242911 3.28018e-19)
(1.15266 0.0751089 0)
(0.0457991 3.07516 -4.57964e-19)
(0.0656493 2.85181 -3.24226e-20)
(0.143463 3.19512 6.94794e-19)
(0.140588 3.22517 -1.03654e-19)
(0.133433 3.23554 0)
(0.0206398 3.13733 1.2294e-19)
(0.077041 3.1609 4.47075e-19)
(0.0692737 3.18607 -2.3358e-19)
(0.0242306 3.12913 0)
(0.662851 0.298397 0)
(0.575228 0.345328 0)
(1.10062 0.670502 1.17144e-19)
(1.12921 0.804188 -1.3089e-19)
(1.16723 0.556351 0)
(1.21404 0.503767 0)
(1.01636 0.0136861 -5.71056e-19)
(1.01514 0.0148489 7.15924e-19)
(1.0251 -0.0102153 0)
(1.02309 -0.0124891 0)
(1.00641 0.00256705 0)
(1.01014 0.00359615 0)
(1.00462 0.00187241 0)
(1.00987 0.00604397 0)
(1.008 0.00628658 0)
(1.00444 0.00438946 0)
(0.0866254 1.34165 0)
(0.0798891 1.3143 0)
(0.11663 1.3777 0)
(0.13389 1.3947 0)
(0.147926 2.60123 0)
(0.188986 2.66299 -2.14116e-19)
(0.0979506 2.65921 0)
(0.0931096 2.65987 1.15173e-19)
(0.0416226 2.68846 -1.13802e-19)
(0.041497 1.30918 0)
(0.0146561 1.23531 0)
(0.0375442 1.31687 0)
(0.0378617 1.25996 0)
(-0.00415214 1.98618 -3.614e-20)
(-0.0268814 2.61102 3.77595e-20)
(-0.0138204 2.67238 5.45103e-20)
(-0.0200745 2.68475 0)
(-0.0306874 2.61433 -9.44387e-20)
(-0.0282253 2.60658 -5.94005e-20)
(0.00733597 1.98671 2.83494e-20)
(-0.0199714 2.41288 -4.88651e-20)
(-0.020851 2.431 -6.47847e-20)
(1.01234 0.0357466 5.73615e-19)
(1.00811 0.0175989 -7.14226e-19)
(1.00433 0.0419275 -5.77351e-19)
(0.984462 0.0224081 7.32365e-19)
(1.06252 0.00712086 0)
(1.04794 -0.00935534 0)
(1.09117 0.0307411 0)
(1.07205 0.0110074 0)
(1.06981 -0.00101125 0)
(1.13227 0.0771848 0)
(1.10648 0.0399434 0)
(1.11073 0.0268685 0)
(-0.100964 2.46639 -5.12014e-21)
(0.013634 2.1664 0)
(-0.063615 2.34463 0)
(-0.0378743 2.59248 2.13765e-20)
(-0.0289462 2.60177 -9.9217e-22)
(0.0451067 1.69375 3.64679e-20)
(0.042383 1.61879 -3.68428e-20)
(0.0537796 1.41536 0)
(0.0475022 1.42227 0)
(0.0679487 1.43021 0)
(0.0482676 1.27295 0)
(0.0319966 1.14659 0)
(0.378959 1.47638 4.51041e-20)
(0.424519 1.4808 3.7056e-20)
(0.592786 2.44012 -1.08814e-19)
(0.405547 2.53952 3.22545e-19)
(0.349851 2.07103 4.27948e-20)
(1.02106 -0.00822928 0)
(1.01544 -0.00992119 0)
(1.01494 -0.0160927 0)
(1.00738 -0.00129438 0)
(1.00493 -0.00107067 0)
(1.00771 -0.00467115 0)
(1.00917 -0.0037901 0)
(1.01406 -0.00454157 0)
(1.02179 0.0161729 5.61996e-19)
(1.01828 0.0162394 -7.13286e-19)
(1.02215 0.0180791 -5.6255e-19)
(1.01991 0.0170183 7.06337e-19)
(0.771128 1.30349 0)
(0.710086 1.356 5.4234e-20)
(0.872266 1.21382 3.37497e-21)
(0.932071 1.15449 -4.48829e-21)
(1.1563 2.60277 2.02122e-19)
(0.814676 0.104062 2.75918e-19)
(1.14879 0.102201 0)
(1.19934 0.183321 -2.62966e-19)
(1.19151 0.138006 -1.1116e-20)
(1.00307 0.140717 0)
(0.159291 2.9602 2.54839e-19)
(0.115394 2.86688 -6.11978e-19)
(0.0297443 2.37883 3.8052e-19)
(0.0957994 0.010235 -1.63228e-19)
(0.335348 3.42405 -6.46089e-20)
(0.19585 3.32101 0)
(0.227253 3.35716 8.40826e-20)
(0.256058 3.04091 -8.02655e-19)
(0.360445 3.20182 0)
(0.00650372 3.12062 2.30759e-20)
(0.0157922 3.1294 -2.73934e-19)
(0.0148417 3.12531 4.01746e-19)
(0.035964 3.14004 0)
(0.0343217 3.15036 0)
(1.18973 2.64339 0)
(0.539314 0.843732 -2.40637e-19)
(1.05709 0.976113 2.93625e-20)
(0.96103 1.06988 0)
(0.809138 0.949362 -6.58093e-20)
(1.04426 0.879803 1.08732e-20)
(0.35229 0.407177 -4.32553e-19)
(0.699522 0.326066 -8.56938e-21)
(0.673479 0.24222 1.96487e-19)
(0.587469 0.391611 1.44515e-20)
(0.50534 0.348275 -5.83044e-19)
(0.669615 0.347613 0)
(0.710263 0.426454 3.31507e-19)
(0.716148 0.418865 0)
(0.622165 0.381266 0)
(0.603378 0.293114 0)
(0.791378 0.609389 2.04597e-19)
(1.20446 0.27286 -2.81853e-19)
(1.2082 0.408668 0)
(1.23287 0.346735 0)
(0.753367 0.194198 2.93312e-19)
(0.841895 0.53999 -1.83784e-19)
(0.74511 0.513274 3.27609e-19)
(0.94662 0.419375 -3.64727e-19)
(1.02013 0.014721 3.82328e-19)
(1.01819 0.0144051 -3.84655e-19)
(1.01594 0.0162652 0)
(1.03562 -0.00636 0)
(1.02945 -0.00880922 -3.61744e-19)
(1.02724 -0.0128309 3.58924e-19)
(1.02515 0.0094876 0)
(1.0239 0.0130615 0)
(1.01121 0.00395094 0)
(1.01435 0.00884932 0)
(1.01471 0.00402749 0)
(1.01385 0.00294869 0)
(0.0567039 1.32263 0)
(0.0621129 1.28583 0)
(0.143249 1.3418 -4.35593e-20)
(0.272709 1.45701 1.53357e-20)
(0.158203 1.42787 3.07852e-20)
(0.196516 1.4383 -5.11699e-20)
(0.161321 1.36908 0)
(0.129053 1.59065 -6.66084e-20)
(0.109799 1.55552 0)
(0.353726 2.01919 -6.1847e-20)
(0.352909 2.36602 2.93738e-19)
(0.18937 1.44025 5.82397e-20)
(0.252848 1.368 -1.08078e-20)
(0.200528 1.35287 8.69871e-21)
(0.262455 1.31451 -8.98927e-20)
(0.232655 1.57593 0)
(0.260042 1.60711 8.3279e-20)
(0.029841 2.27477 -3.04731e-20)
(0.0415945 2.67846 0)
(0.0610893 2.41343 1.01538e-19)
(0.0545857 2.43759 0)
(0.0707063 2.67119 -1.28027e-19)
(0.0534023 2.70501 0)
(0.0258102 1.40051 -3.47472e-20)
(0.0316736 1.45011 0)
(0.0324768 1.3688 0)
(0.022239 1.37425 3.91176e-20)
(-0.00244575 2.65895 -9.94359e-21)
(0.0284258 2.70387 1.3317e-19)
(0.0107809 2.72653 9.93527e-22)
(-0.00529584 1.83643 3.37361e-20)
(-0.0154745 1.67672 1.57382e-20)
(0.0129191 1.28967 0)
(0.00715876 1.19521 0)
(0.0485226 1.56139 4.77147e-20)
(0.0264253 1.43402 4.6018e-20)
(0.0356782 1.50043 -5.79064e-20)
(0.0372564 1.58613 0)
(-0.044933 2.29161 -5.20143e-20)
(-0.0545923 2.54984 2.1689e-20)
(-0.0179436 2.45553 -1.1015e-20)
(-0.018802 1.85164 -4.07339e-20)
(-0.0364458 2.4984 -1.56298e-20)
(-0.0287165 2.44681 6.5703e-20)
(1.02037 0.0209289 -3.80071e-19)
(1.01666 0.0262971 3.81713e-19)
(1.01529 0.0169767 0)
(1.012 0.0667326 5.31404e-19)
(0.99289 0.0564296 -5.93209e-19)
(0.954427 0.0408961 6.63409e-19)
(1.01545 0.100075 -7.11804e-20)
(1.04171 -0.00617813 0)
(1.04984 -0.00211441 3.48408e-19)
(1.03822 -0.0104883 -3.4745e-19)
(1.0699 0.0403488 -2.0677e-20)
(1.06333 0.0210086 1.77889e-19)
(1.06504 0.0507612 0)
(1.05148 0.0465652 -6.36172e-20)
(1.03414 0.038966 0)
(1.02643 0.0356581 0)
(1.02751 0.0130846 0)
(1.02433 0.0157812 0)
(1.0393 0.030768 1.30668e-19)
(1.03971 0.0248874 -2.87496e-19)
(1.04949 0.0307299 -1.39531e-19)
(1.04773 0.0311313 -1.53066e-19)
(1.06675 0.0596566 3.01174e-19)
(1.09145 0.047722 0)
(1.10147 0.0895555 0)
(-0.0541919 2.28411 -3.09451e-20)
(-0.00935723 2.12575 -5.19189e-21)
(-0.00557722 2.08207 0)
(-0.0481141 2.46444 3.13841e-20)
(-0.0479493 2.43942 9.92568e-21)
(-0.0725212 2.46383 -1.0459e-20)
(-0.0284737 2.61676 5.13894e-20)
(-0.0422641 2.55688 -3.97863e-21)
(-0.0298976 2.51493 1.62285e-20)
(-0.0257768 2.6086 -2.82142e-20)
(-0.0284758 2.61067 3.46917e-20)
(0.0666002 1.5719 4.03524e-22)
(0.032193 1.71005 4.29044e-20)
(0.362764 1.41762 -1.15869e-20)
(0.360197 1.36704 6.08763e-20)
(0.652878 1.40627 -5.24165e-20)
(0.520865 1.47168 -3.59017e-20)
(0.58181 1.44164 0)
(0.581367 2.41737 1.04683e-19)
(0.652486 2.41376 1.56511e-19)
(0.405182 2.51589 3.67198e-20)
(0.408262 2.55081 -3.04988e-19)
(0.522033 2.50003 2.86521e-19)
(0.542723 2.45595 0)
(0.479888 2.51203 -2.59143e-19)
(0.237958 2.58946 5.59623e-19)
(0.348172 2.56948 -3.4012e-20)
(0.282184 2.65255 -7.51695e-19)
(0.93066 2.37527 3.66211e-19)
(0.824769 2.38214 0)
(1.01089 0.000199092 1.23138e-20)
(1.01519 -0.00554645 -1.02032e-20)
(1.01757 -0.00355087 -1.83942e-19)
(1.01483 -0.000972423 1.85925e-19)
(1.01216 0.000953958 0)
(0.636938 1.27231 0)
(0.645081 1.16651 0)
(0.743092 1.06964 0)
(0.643138 1.12721 0)
(1.1843 2.61322 2.72057e-20)
(1.07235 2.35997 0)
(0.850362 2.17994 2.1302e-21)
(0.821875 2.44698 0)
(0.921356 2.53763 -2.16959e-19)
(0.958836 2.49714 1.4096e-19)
(0.816932 0.149156 0)
(0.79033 0.125828 7.49312e-20)
(0.927429 0.137015 4.41155e-19)
(0.83689 0.124222 -1.64575e-19)
(0.823396 0.0745221 -5.0569e-19)
(1.0707 0.220341 -4.59759e-19)
(0.997931 0.285889 -6.12875e-21)
(0.918839 0.269092 4.1255e-19)
(1.00577 0.209446 3.4822e-19)
(0.953746 0.175379 -5.89053e-19)
(0.922341 0.177754 7.32891e-20)
(0.949413 0.230539 -1.58891e-19)
(0.932164 0.198608 0)
(0.994937 0.174031 2.91246e-19)
(1.04649 0.174212 0)
(1.04509 0.203657 0)
(1.09641 0.110017 1.4295e-19)
(1.07697 0.163185 -5.78243e-21)
(1.06765 0.221407 -7.6744e-20)
(1.09974 0.190828 0)
(1.0227 0.0435469 2.95337e-19)
(1.04287 0.0560104 3.66869e-19)
(1.0343 0.0413362 -2.89985e-19)
(1.04175 0.062054 -2.46442e-19)
(1.0172 0.0693502 -3.74882e-19)
(0.990987 0.14518 0)
(1.00116 0.0983321 0)
(0.97265 0.0661457 -2.3538e-19)
(0.924189 0.0854786 9.16461e-20)
(1.03769 0.0956582 3.4144e-19)
(1.06842 0.110035 -4.08647e-19)
(1.07407 0.139857 3.60869e-19)
(1.02899 0.137845 0)
(1.07128 0.10219 0)
(1.05674 0.0815582 -1.65717e-19)
(1.045 0.0907756 -2.79642e-19)
(0.575467 1.07955 8.11906e-20)
(0.620906 1.39302 -4.53034e-20)
(1.15933 2.74055 -1.26711e-19)
(1.23632 3.07595 5.79133e-21)
(1.24854 2.71164 -1.30283e-19)
(1.27856 2.71022 -4.82019e-21)
(1.16532 2.35218 8.04361e-21)
(1.22462 2.97002 -8.5065e-20)
(1.24617 2.939 1.66639e-19)
(1.24217 3.23133 -6.69078e-20)
(1.36511 2.96836 7.72701e-20)
(1.30347 2.89231 0)
(0.545474 0.848247 -2.34889e-20)
(0.117067 1.25093 2.69412e-19)
(0.55034 0.462552 2.82025e-19)
(0.358529 0.204993 3.0722e-19)
(0.524975 0.397085 3.30258e-19)
(0.555248 0.473049 -5.43903e-19)
(0.546154 0.494364 4.4474e-19)
(0.492638 0.41243 -1.68023e-19)
(0.413091 0.340275 3.78578e-19)
(0.753875 0.251837 -1.67804e-19)
(0.717157 0.284141 0)
(0.706658 0.212634 3.77003e-21)
(0.730326 0.516227 1.74502e-19)
(0.705803 0.479542 -6.37664e-19)
(0.609677 0.480501 5.54636e-21)
(0.62764 0.462802 0)
(0.662417 0.736427 1.90265e-19)
(0.829183 0.778103 1.96435e-19)
(0.744996 0.85993 -2.2815e-19)
(0.863394 0.803169 -8.05871e-20)
(0.88954 0.834925 -2.27923e-20)
(0.896307 0.838162 2.34163e-20)
(0.838751 0.634432 -3.41134e-19)
(0.909665 0.706449 7.511e-20)
(0.962862 0.711302 0)
(0.944997 0.679162 -1.07456e-19)
(1.02304 0.30953 1.07391e-19)
(1.11599 0.282681 1.61625e-19)
(1.05722 0.256037 1.8428e-19)
(1.01331 0.354735 -2.15017e-19)
(1.04792 0.419537 0)
(1.0881 0.400702 0)
(0.910618 0.343339 2.68153e-21)
(0.842739 0.282789 0)
(0.871766 0.275963 1.91481e-19)
(0.909349 0.276024 -3.58807e-21)
(0.935568 0.420817 1.01838e-18)
(0.892564 0.484419 2.65549e-19)
(0.89611 0.447363 -2.78227e-19)
(0.816171 0.432108 2.98452e-19)
(0.801274 0.432526 1.7763e-19)
(0.768463 0.417464 -1.72941e-19)
(1.0279 -0.000617881 3.03659e-19)
(1.01989 -8.51644e-05 0)
(1.01855 0.00076217 2.01257e-19)
(1.02103 -0.00220048 -4.53736e-19)
(1.02209 0.00436016 2.21045e-19)
(1.02046 0.0110978 -4.65111e-19)
(1.02147 0.0104227 0)
(1.02114 0.0103987 -9.59888e-20)
(1.01591 0.00774045 2.40458e-19)
(1.01688 0.0102272 -1.21628e-19)
(1.01757 0.00948075 8.95735e-20)
(0.0294332 1.30289 0)
(0.0377802 1.33985 0)
(0.0395907 1.30147 0)
(0.0490002 1.26837 0)
(0.0647723 1.36428 6.82493e-20)
(0.0747156 1.33459 -1.64604e-20)
(0.113931 1.48853 -3.00692e-20)
(0.0860499 1.33561 2.43511e-20)
(0.0307958 1.43645 -6.05865e-20)
(0.0348552 1.42734 4.61812e-20)
(0.0593415 1.34457 -6.34557e-22)
(0.0539422 1.34484 -4.1416e-20)
(0.0497697 1.32422 -6.22154e-21)
(0.0400955 1.34672 -7.01226e-21)
(0.107719 2.3842 -1.09665e-19)
(0.0915617 2.42993 0)
(0.16988 2.07519 6.2992e-20)
(0.111571 1.70655 3.47303e-20)
(0.236964 2.06023 -4.97463e-20)
(0.209156 2.44757 0)
(0.272004 2.40123 -2.95316e-19)
(0.308861 2.39966 2.08846e-19)
(0.226049 2.01334 -1.44173e-19)
(0.151157 2.17709 9.11179e-20)
(0.154534 2.2981 0)
(0.0091158 1.88369 -6.2077e-20)
(-0.00640161 2.41167 -9.28833e-20)
(0.000911551 2.16404 0)
(0.0093178 2.4702 -5.70034e-21)
(0.0204792 2.31818 3.5036e-20)
(0.0188819 1.38508 5.79302e-21)
(0.0191428 1.37719 -9.1685e-20)
(0.0161223 1.38339 2.46711e-20)
(0.0167814 1.38108 3.18317e-20)
(0.0240685 1.40503 0)
(0.0166568 1.36516 0)
(0.0375241 1.2737 3.66983e-20)
(0.0267252 1.36757 -1.24987e-20)
(0.0121205 1.35727 0)
(0.0321944 1.26832 2.44396e-20)
(0.00770504 1.16489 -5.03204e-20)
(1.03932 0.0100749 0)
(1.04523 0.00666715 -3.24328e-20)
(1.03864 0.0201928 -2.32042e-19)
(1.04728 0.018747 0)
(1.0506 0.0188078 0)
(1.03659 0.0106255 -2.77371e-21)
(1.03135 0.0101499 3.73154e-19)
(1.03185 0.0158478 4.56566e-19)
(1.02588 0.0198522 0)
(1.02353 0.020274 0)
(1.03496 0.0245665 2.32449e-19)
(1.02664 0.0254034 0)
(1.025 0.025121 0)
(-0.0410706 2.02191 0)
(0.0217716 1.70181 -1.53645e-21)
(-0.0171073 1.79349 5.43873e-21)
(0.0462246 1.36585 0)
(0.0033328 1.57583 2.39526e-20)
(0.0414424 1.48951 -1.55183e-20)
(0.0809784 1.42789 0)
(0.383546 1.68145 0)
(0.364906 1.29051 -1.08672e-19)
(0.312873 1.34155 0)
(0.421514 1.28675 9.90852e-20)
(0.467224 1.44871 0)
(0.4471 1.39438 -3.20752e-20)
(1.0295 2.68357 -7.90039e-21)
(0.956961 2.40992 -4.47401e-19)
(0.904393 2.18869 5.19976e-19)
(0.837968 2.37449 1.24213e-19)
(0.83908 2.4987 0)
(0.910877 2.49144 0)
(0.910192 2.37052 0)
(0.896429 2.35396 -4.55235e-19)
(0.686128 2.46293 -2.066e-19)
(0.795837 2.45943 -4.92412e-20)
(0.808 2.42846 3.90125e-20)
(0.684992 2.38959 0)
(0.789697 2.38734 0)
(0.745832 2.39782 -1.69125e-19)
(0.764141 2.49406 0)
(0.613691 1.10462 0)
(0.481788 0.922868 -2.4792e-19)
(0.561271 0.951025 -1.59076e-20)
(0.522506 1.05199 0)
(0.524744 1.00353 3.75302e-19)
(0.768439 0.888175 -6.88506e-20)
(0.775151 1.00841 0)
(0.747945 0.954395 1.06854e-19)
(0.633502 1.04218 0)
(0.641587 0.946348 0)
(1.16521 2.75501 -1.31e-19)
(1.14189 2.82081 -6.77568e-20)
(0.937753 2.33507 9.05962e-20)
(0.898744 2.31382 -4.98534e-20)
(1.12789 2.72538 0)
(1.08051 2.69394 6.27867e-20)
(1.08669 2.47743 -1.60186e-19)
(0.979569 2.22996 -1.36157e-20)
(0.494177 1.35596 0)
(0.502838 1.07036 -7.11544e-20)
(0.559702 1.14432 0)
(0.865893 0.214253 0)
(0.795756 0.167641 0)
(0.742727 0.138534 0)
(0.858685 0.218968 -3.02631e-19)
(0.771069 0.212439 1.7658e-19)
(0.938041 0.072963 -1.90475e-19)
(0.951764 0.118904 0)
(0.929537 0.124708 8.15553e-20)
(0.867956 0.102841 3.27715e-19)
(0.851453 0.063568 -2.05801e-19)
(1.17323 3.36622 -2.85915e-19)
(1.22492 3.28673 0)
(1.13902 3.38453 -5.67659e-19)
(0.638257 3.5433 4.95126e-19)
(0.850325 3.10957 -1.19902e-21)
(0.50774 0.855264 2.82429e-19)
(0.416386 0.847043 0)
(0.326918 0.509617 -6.86872e-20)
(0.452089 0.683725 3.9388e-19)
(0.546283 0.475652 -9.66632e-20)
(0.518764 0.524972 1.08191e-19)
(0.655069 0.533255 2.37985e-19)
(0.689794 0.545892 0)
(0.644614 0.614157 0)
(0.600105 0.550009 0)
(0.964032 0.59665 6.00981e-20)
(0.893388 0.533052 -2.56464e-19)
(0.91494 0.565582 2.04657e-19)
(0.951958 0.504867 -2.00767e-19)
(1.05967 0.478867 0)
(1.04887 0.562417 -5.38051e-20)
(0.840661 0.386599 -4.04731e-19)
(0.845932 0.372631 -4.94468e-19)
(0.793119 0.378179 3.13703e-19)
(0.791293 0.353023 -3.17541e-19)
(0.841428 0.309135 -2.49806e-19)
(0.792684 0.308591 3.07516e-19)
(1.02666 0.0054048 -2.3661e-19)
(1.02636 0.00574224 4.901e-19)
(1.02923 -0.000993029 2.94895e-19)
(1.03294 0.000466126 -3.58177e-19)
(1.0328 0.0071809 0)
(1.02996 0.00794399 -5.86599e-19)
(0.0613044 1.63776 1.96705e-20)
(0.0423297 1.56233 0)
(0.0868147 1.68512 1.41702e-19)
(0.0928967 1.66509 -1.27596e-19)
(0.0936146 1.50751 5.61777e-20)
(0.087537 1.491 0)
(0.00944228 1.68973 0)
(-0.0105391 1.49272 -1.29324e-20)
(-0.00484546 1.43508 1.1623e-20)
(0.00476171 1.57158 1.57194e-21)
(-0.00738653 1.8901 -2.24133e-20)
(-0.0258976 1.94198 1.26714e-20)
(0.495564 1.37186 -1.7598e-19)
(0.491033 1.38075 1.88809e-19)
(0.444652 1.28452 -6.22783e-20)
(0.434642 1.29039 6.5517e-21)
(0.623923 1.29301 0)
(0.544133 1.38054 -4.71951e-21)
(0.561493 1.39053 4.57975e-21)
(0.454773 1.27124 6.0359e-20)
(0.509589 1.22773 0)
(0.555582 1.18939 0)
(0.64846 2.42131 3.10026e-19)
(0.669387 2.46333 5.94146e-19)
(0.708923 2.47777 -4.07556e-19)
(0.608773 2.46063 -9.37628e-20)
(0.563807 2.54613 1.39722e-19)
(0.52436 2.52759 -3.58866e-19)
(0.972625 2.37443 -2.90476e-19)
(1.00914 2.38558 0)
(0.915608 2.16715 -3.37006e-19)
(1.05054 2.67454 0)
(1.05342 2.6611 0)
(0.605325 2.25563 -9.58414e-20)
(1.02891 3.1578 2.04127e-20)
(0.89573 3.01847 3.68046e-20)
(0.287277 0.913868 0)
(0.326503 0.757632 -1.46378e-19)
(0.465398 0.724252 -1.52492e-19)
(0.401663 1.98335 0)
(0.47899 2.78684 8.48876e-22)
(0.43484 2.5703 0)
(0.67542 0.67345 -4.02524e-19)
(0.760535 0.684545 5.47432e-19)
(0.788334 0.619359 -5.38428e-19)
(0.66738 0.638575 -5.16921e-20)
(0.717872 0.594582 -2.13192e-19)
(1.01413 2.76369 -1.54165e-20)
(1.04551 2.83312 -8.78466e-20)
(0.655932 2.13975 3.35282e-19)
(0.583331 1.71687 -2.30378e-19)
(0.709818 1.90775 -2.18478e-19)
(0.994603 2.4692 -4.93296e-20)
(0.99601 2.45709 1.45986e-19)
(0.667524 1.87471 1.24265e-20)
(0.458461 1.3368 8.16258e-20)
)
;

boundaryField
{
    wall-4
    {
        type            noSlip;
    }
    velocity-inlet-5
    {
        type            fixedValue;
        value           uniform (1 0 0);
    }
    velocity-inlet-6
    {
        type            fixedValue;
        value           uniform (0 3 0);
    }
    pressure-outlet-7
    {
        type            zeroGradient;
    }
    wall-8
    {
        type            noSlip;
    }
    frontAndBackPlanes
    {
        type            empty;
    }
}


// ************************************************************************* //
