/*--------------------------------*- C++ -*----------------------------------*\
| =========                 |                                                 |
| \\      /  F ield         | OpenFOAM: The Open Source CFD Toolbox           |
|  \\    /   O peration     | Version:  4.0                                   |
|   \\  /    A nd           | Web:      www.OpenFOAM.org                      |
|    \\/     M anipulation  |                                                 |
\*---------------------------------------------------------------------------*/
FoamFile
{
    version     2.0;
    format      ascii;
    class       volScalarField;
    location    "37";
    object      p;
}
// * * * * * * * * * * * * * * * * * * * * * * * * * * * * * * * * * * * * * //

dimensions      [0 2 -2 0 0 0 0];

internalField   nonuniform List<scalar> 
918
(
0.623427
1.27155
0.00631087
0.622649
-0.000373146
1.23917
-0.433169
0.786708
0.603292
-0.021609
0.0362101
0.598534
1.10014
0.865866
-1.05382
0.060848
0.737494
-0.312265
0.602659
0.0407146
0.823822
0.609742
0.61277
0.603166
0.667452
0.848031
0.980852
0.0201052
-0.00666088
-0.00795758
0.0182711
-0.00417719
0.0158584
1.12254
1.17315
1.19572
0.57189
0.407087
-0.279814
-0.36133
-0.35357
-0.479343
0.780411
0.781213
-0.10846
0.788749
0.798029
0.590875
0.60263
0.603568
0.604657
0.60361
0.605034
0.479898
-0.0294748
-0.0602988
-0.00246215
0.0100471
0.128609
0.0423704
0.0411774
0.0412396
0.0432546
0.52216
0.594384
0.591649
0.603744
0.612663
1.21032
1.18136
1.20696
1.12396
1.13876
1.07785
1.04979
0.886779
0.90839
0.851964
0.837321
-1.47588
-2.43508
-0.466976
-0.215078
-3.70483e-05
0.0585004
0.0723313
0.728148
0.726526
0.737447
0.751491
1.1577
-0.29953
-0.443194
0.602463
0.601438
0.609563
0.609921
0.607085
0.605167
0.0463385
0.0490474
0.023672
0.0364012
0.0335625
0.811946
0.810678
0.604849
0.601445
0.618392
0.637843
0.63243
0.354259
0.669741
0.679077
0.667196
0.83369
0.831148
0.838336
0.95544
0.918998
1.01796
1.04141
0.0021207
0.00362141
0.0482534
0.0298097
0.0427393
0.567818
0.55984
0.586699
0.575266
0.577689
0.323975
0.190786
0.50029
0.5283
-0.192187
-0.264836
-0.354239
-0.384612
-0.495557
0.692229
0.769568
0.7691
-0.120331
-0.0535478
-0.184469
0.0297936
-0.0349274
0.581207
0.588194
0.582546
0.598213
0.59294
0.594533
0.606931
0.604
0.60552
0.541076
0.644057
0.411427
0.371062
-0.171509
-0.0746162
-0.17384
0.0227581
0.028097
0.142316
0.170729
0.119167
0.10693
0.0341225
0.0421909
0.0392243
0.0463073
0.0465683
0.516941
0.507164
0.53558
0.542787
0.585062
0.585991
0.589031
0.587653
0.999974
1.02265
1.031
1.00439
-3.45185
-6.50748
0.108843
0.250084
0.0067699
0.0150055
0.00732653
0.0244538
0.0118763
0.00345292
0.0801141
0.0763237
0.0720264
0.0776198
0.711726
0.712784
1.06302
1.05474
1.0266
0.9692
0.590655
0.592778
0.598291
0.593781
0.0462497
0.0530315
0.0528544
0.798425
0.806365
0.804577
0.317995
0.23249
0.404602
0.432728
0.697783
0.684949
0.696584
0.730158
0.765348
1.04798
1.06577
1.06604
1.07393
1.11896
1.13181
1.09762
0.548247
0.557675
0.553246
0.589839
0.587562
0.588456
0.584175
0.585478
0.582843
0.0207952
-0.339842
0.590788
0.606918
0.584201
0.59285
0.764095
0.830973
0.750897
0.760266
0.759965
0.0970426
0.0360515
0.328176
0.295142
0.45865
0.49398
0.471448
0.971297
0.932626
0.982624
0.955834
0.915915
0.942461
-0.379097
-1.61938
-0.878619
0.609347
0.419337
0.508032
0.0916659
0.0820885
0.0879182
1.04323
1.13705
0.69215
0.879306
0.928031
0.801643
0.832064
0.893341
0.816563
0.852026
0.886167
0.864477
0.649033
0.604972
0.608788
0.893399
0.945516
0.21292
0.162487
0.106844
0.189809
0.242076
0.216774
1.08959
0.999883
1.07157
0.601052
0.601658
0.0132008
0.0458045
0.605837
0.606034
0.0224041
0.0389614
0.493185
-0.750815
0.191855
0.593981
0.584325
0.60124
-0.0124617
0.445197
0.039691
0.135172
0.084117
0.596108
0.532764
0.494609
0.0489878
0.0449136
0.0429029
-0.146266
0.598565
0.596719
0.600749
0.601802
0.602436
0.0422188
0.0342568
0.0336895
0.0474534
0.0459622
0.0438747
0.565991
0.583187
-0.0933215
0.600871
0.603071
0.602881
0.595741
0.601608
0.599527
0.059797
0.0443076
0.0490612
0.306508
0.42835
0.737704
0.838727
0.706904
0.475296
0.2235
0.637552
0.702508
0.606894
0.762599
0.760668
0.782168
0.261307
0.10365
0.263766
0.203484
0.592173
0.590549
0.58272
0.579693
0.596186
0.594361
0.59878
0.595719
0.598637
0.600082
0.0317679
0.0101434
-0.00629879
-0.0759769
0.400869
0.668266
0.334086
0.376464
0.217077
0.0446467
0.044329
0.0420922
0.0390477
0.0880737
0.0665323
0.130632
0.131791
0.106472
0.0845903
0.077693
0.0649867
0.0613806
0.589589
0.588017
0.594438
0.602799
0.54216
0.545901
0.511717
0.531838
0.517373
0.459613
0.494334
0.46967
0.0408132
0.0594087
0.0321673
0.0495387
0.0593535
0.0620658
0.0523833
0.0533357
0.0536061
0.0487239
0.0500947
0.0500941
-0.104832
-0.217872
1.06002
0.99356
0.189041
0.587569
0.594133
0.590758
0.595737
0.598802
0.59966
0.597429
0.594005
0.583791
0.585602
0.582079
0.582676
-0.0260166
-0.170493
-0.000699122
-0.0627048
0.198069
0.693334
0.439916
0.369184
0.369763
0.595017
1.01085
0.778941
0.769456
0.807162
-0.287636
0.0918957
-0.223773
0.367456
0.189428
0.737049
0.786749
0.807901
0.754622
0.707232
-0.181313
0.607341
0.0196318
0.0641788
0.265028
0.15591
0.78489
0.744596
0.751057
0.769669
0.790916
0.747907
0.728888
0.726193
0.765679
0.770422
0.569062
0.341677
0.286656
0.253471
0.729214
0.609124
0.662977
0.576651
0.587015
0.589808
0.588331
0.57079
0.578136
0.57379
0.579705
0.582882
0.592174
0.592732
0.587767
0.590052
0.0353847
0.0323707
0.0573277
-0.0630823
-0.0529052
-0.12455
0.0157826
0.137522
0.105586
0.304781
0.385141
0.114074
0.0153853
0.041945
0.0643507
0.2407
0.297895
0.154016
0.234881
0.228956
0.211723
0.328793
0.32559
0.0593598
0.0500799
0.0541136
0.0541672
0.103535
0.170955
0.189961
0.079897
0.0746191
0.0461166
0.0472589
0.0542265
0.0541213
0.0547944
0.0943259
-0.00152063
0.0475156
0.07356
0.0867005
0.0806346
0.0686343
0.582696
0.584668
0.584459
0.592457
0.608933
0.624607
0.583267
0.564308
0.555069
0.557819
0.531301
0.541736
0.53714
0.550058
0.570641
0.579603
0.578021
0.580681
0.563841
0.565348
0.552316
0.55584
0.533186
0.514562
0.502404
0.050158
0.0647919
0.0836186
0.0358705
0.0729791
0.0702863
0.0822704
0.0922651
0.0784937
0.0682895
0.0712722
0.0592992
0.0616062
-0.0066863
0.0768624
-0.112872
-0.148357
-0.223152
0.963145
1.06912
0.886114
0.654737
0.667923
0.911965
0.994017
0.625592
0.796721
0.82646
0.663411
0.909847
0.592611
0.592166
0.589711
0.58923
0.590577
0.0641654
0.170956
0.17087
0.234012
0.343806
0.465772
0.376265
0.249222
0.38158
0.372624
0.687529
0.705142
0.652995
0.677406
0.675772
0.503361
0.581042
0.635921
0.590263
0.633866
0.65393
0.618613
0.645461
0.594677
0.548881
0.549636
0.497274
0.510824
0.490432
0.473553
0.582447
0.559336
0.569744
0.560817
0.581271
0.604935
0.59932
0.630966
0.641861
0.565476
0.524649
0.531757
0.563015
0.524677
0.538806
0.55337
0.292047
0.222327
0.259041
-0.0313157
0.0538377
-0.0224029
-0.0538979
0.0631254
0.362659
-0.380784
-0.439635
-0.99577
0.550474
1.07649
0.740055
0.683664
0.787379
0.762801
0.763798
0.79534
0.798476
0.719651
0.737178
0.744032
0.69493
0.716748
0.746902
0.742367
0.594389
0.45175
0.442752
0.406582
0.284389
0.322343
0.524684
0.438969
0.365891
0.380887
0.541589
0.435755
0.499549
0.528336
0.448748
0.422267
0.617914
0.689072
0.678057
0.651208
0.571602
0.583028
0.612655
0.64673
0.671948
0.708369
0.579276
0.585178
0.586441
0.58398
0.581135
0.583993
0.584157
0.586762
0.587553
0.590648
0.589593
0.0420875
0.0529853
0.0423158
0.0321433
0.0547287
0.0511985
0.103328
0.0907751
0.071886
0.0783922
0.051172
0.0513336
0.0560051
0.0636829
0.176522
0.179081
0.161543
0.129241
0.307623
0.446435
0.510082
0.38779
0.296431
0.322888
0.336403
0.0605522
0.0904902
0.0794543
0.115924
0.111885
0.0545238
0.0517188
0.051446
0.054159
0.0678317
0.0493241
0.0541497
0.0627926
0.052696
0.052577
0.0495958
0.566845
0.560506
0.560749
0.555527
0.554705
0.567295
0.571671
0.574037
0.579407
0.581143
0.571903
0.577065
0.580591
0.078263
0.0545501
0.0420162
0.0680194
0.0655537
0.0656158
0.0663747
0.192759
0.122027
0.12092
0.0775551
-0.0530407
0.00469276
0.559797
0.557956
0.563814
0.785894
0.639228
0.563815
0.664546
0.764708
0.339529
0.531898
0.367669
0.949333
0.840513
0.985888
0.595823
0.299214
0.458252
0.516255
0.306303
0.384166
0.387276
0.289182
0.317309
0.339571
0.443011
0.33387
0.315685
0.0657691
0.262131
0.379438
0.365506
0.490831
0.558321
0.317144
0.243808
0.212681
0.677688
0.698266
0.722698
0.688464
0.714244
0.641055
0.630342
0.648911
0.657479
0.652733
-0.720715
-0.432602
-1.34452
-0.636364
-0.197081
0.580804
0.546
0.825422
0.711881
0.772084
0.758157
0.728189
0.692076
0.703437
0.735951
0.438108
0.543514
0.519953
0.523968
0.417199
0.36206
0.658534
0.650403
0.690067
0.712949
0.679607
0.714783
0.577107
0.576776
0.57629
0.573064
0.571466
0.573463
0.138066
0.105881
0.149486
0.12904
0.10431
0.0882842
0.0828959
0.0772304
0.0661854
0.0616918
0.0736603
0.0758203
0.224314
0.163407
0.0949657
0.12231
0.0616948
-0.00769816
-0.0264451
0.0773518
0.169638
0.170433
0.476307
0.713777
0.534784
0.704301
0.571184
0.602388
0.555494
0.552087
0.579779
0.460475
0.535121
0.342175
-0.19214
-0.0726274
0.806844
0.87089
0.645285
0.515127
0.225474
0.355843
0.622215
0.548661
0.591362
0.662898
0.653943
0.0715397
0.102061
0.431204
0.63328
0.304673
0.237803
0.253506
0.415879
0.369705
)
;

boundaryField
{
    wall-4
    {
        type            zeroGradient;
    }
    velocity-inlet-5
    {
        type            zeroGradient;
    }
    velocity-inlet-6
    {
        type            zeroGradient;
    }
    pressure-outlet-7
    {
        type            fixedValue;
        value           uniform 0;
    }
    wall-8
    {
        type            zeroGradient;
    }
    frontAndBackPlanes
    {
        type            empty;
    }
}


// ************************************************************************* //
