/*--------------------------------*- C++ -*----------------------------------*\
| =========                 |                                                 |
| \\      /  F ield         | OpenFOAM: The Open Source CFD Toolbox           |
|  \\    /   O peration     | Version:  4.0                                   |
|   \\  /    A nd           | Web:      www.OpenFOAM.org                      |
|    \\/     M anipulation  |                                                 |
\*---------------------------------------------------------------------------*/
FoamFile
{
    version     2.0;
    format      ascii;
    class       surfaceScalarField;
    location    "37";
    object      phi;
}
// * * * * * * * * * * * * * * * * * * * * * * * * * * * * * * * * * * * * * //

dimensions      [0 3 -1 0 0 0 0];

internalField   nonuniform List<scalar> 
1300
(
3.75095
5.62643
-2.99173
3.75095
-7.00891
5.62643
-4.45917
4.45917
-0.916514
0.916514
1.87647
1.87449
-3.03013
3.03013
-2.44233
2.44233
-2.55041
2.55041
-5.24639
5.24639
-5.06771
5.06771
4.66014
-4.66014
-6.07255
6.07255
-1.27822
1.27822
-3.8886
3.8886
3.16877
-3.16877
-2.29967
2.29967
-0.250661
0.250661
-0.553152
4.30411
3.1978
3.1978
-2.02989
2.02989
-4.86415
4.86415
6.21757
-6.21757
4.6977
-4.6977
-1.70597
-2.03557
1.44303
-11.1672
-5.56588
-5.56588
-8.44023
8.44023
-2.8138
2.81263
2.94425
-2.94425
-1.86132
1.86132
-4.37521
-0.0839537
-4.37521
4.46434
-0.00517666
4.46434
-1.01247
0.0959589
-1.01247
3.93438
-3.93438
0.78881
0.127704
0.78881
3.06501
-3.06501
-1.87715
3.75362
1.8738
-1.87178
6.17588
-1.87917
3.75366
-5.94327
5.94327
-3.2338
0.203672
-3.2338
2.86186
0.168272
2.86186
-6.74589
6.74589
-2.53026
0.0879313
-2.53026
2.39692
0.045405
2.39692
2.86677
-2.86677
-2.65283
0.102423
-2.65283
2.43851
0.111905
2.43851
0.353688
5.27274
-5.98012
8.79274
-5.27274
0.0263531
5.20825
0.0381428
5.20825
-5.10553
0.0378216
-5.10553
5.01275
0.0549596
5.01275
4.73732
-0.0771764
4.73732
-4.7837
0.12356
-4.7837
-3.83961
-4.40963
-6.24245
0.169902
-6.24245
-1.27335
-0.00486383
-1.27335
1.23529
0.0429214
1.23529
-3.61364
3.61364
-4.24066
0.35206
-4.24066
3.12266
0.0461124
3.12266
1.86902
1.88193
5.61998
-5.61998
2.45121
-2.34363
0.043962
-2.34363
-2.31926
-2.37845
2.31926
-0.0195862
-0.505583
0.254922
-0.505583
3.16007
0.0377323
3.16007
2.2847
0.153809
-2.2847
0.254804
3.22257
-3.22257
1.36711
0.662787
1.36711
-5.56873
5.56873
4.95318
0.0595637
-4.95318
0.0890304
6.15592
0.061656
6.15592
-6.19982
-0.0177541
-6.19982
2.64663
-4.6822
-2.37282
5.84357
0.228982
-5.84357
0.277686
2.91442
0.0298349
2.91442
-2.91913
2.91913
-2.98379
0.0395378
-2.98379
-2.24555
0.384225
-2.24555
1.57546
0.285867
1.57546
-4.24271
-0.132504
-4.24271
-4.37838
0.137722
4.37838
0.0859636
1.16897
-1.16897
-1.1249
0.112429
-1.1249
-4.08559
-0.157116
4.08559
-0.151213
-3.78066
-0.153714
-3.78066
-3.02383
0.0400405
3.02383
0.0411816
3.11311
0.0469569
-3.11311
0.0481014
-1.87089
3.75282
-1.88006
3.75386
-5.56743
-0.375834
-5.56743
6.24964
-0.306369
6.24964
3.57517
0.313431
-3.57517
0.341363
2.72931
0.132548
2.72931
-6.71717
-0.0287168
-6.71717
6.71824
0.0276435
6.71824
2.62126
0.108048
-2.62126
0.091005
2.39023
0.0066897
2.39023
2.88264
-0.0158706
2.88264
-2.86649
-0.000277981
-2.86649
2.79822
-2.79822
2.72955
0.0686641
-2.72955
0.07672
-11.1326
11.1149
-0.0349847
-11.0977
5.17326
5.17326
4.15259
0.584729
4.15259
-5.00044
0.21674
-5.00044
3.24686
-5.61968
3.27035
-7.10996
4.93087
-16.0981
4.33019
-8.73983
6.5535
-6.5535
6.40709
0.146412
-6.40709
0.164636
-1.29917
0.0258136
-1.29917
-3.01434
-0.599303
-3.01434
4.26289
-0.649245
4.26289
-3.02778
3.02778
-3.07674
0.0489565
3.07674
0.0459192
2.38922
0.00101085
-2.38922
0.0455917
0.654715
0.134095
-0.654715
0.149133
3.39914
-0.176575
3.39914
-3.04107
-0.181496
-3.04107
-1.32876
0.0295969
1.32876
0.0383428
-5.81684
0.248111
-5.81684
-11.1909
0.0932824
-11.1528
-6.10654
-6.10654
2.3337
11.1264
-2.88818
0.0216872
2.88818
0.0262373
2.9744
0.0533848
-2.9744
0.0552672
-2.86055
0.0623295
2.86055
0.0585816
-2.62988
0.384334
-2.62988
-1.16415
1.16415
-1.34083
0.176682
1.34083
0.234623
1.40305
-0.234086
1.40305
1.19352
0.0417698
-1.19352
0.0686234
-3.66301
-0.117659
-3.66301
6.47682
-0.227181
6.47682
-2.93647
-0.104602
2.93647
-0.0538293
-0.033453
11.1483
-5.13981
0.0342802
5.13981
-11.21
11.2443
-3.25832
0.628437
3.25832
0.894273
5.29
0.278729
-5.29
0.289557
6.65967
0.0585685
-6.65967
0.106175
-2.53531
-0.479024
-2.53531
-5.00197
-0.565465
5.00197
-0.739082
-11.4736
-0.202551
11.6761
-11.4186
6.01939
0.136525
-6.01939
11.3808
-1.09489
-0.0740767
1.09489
0.0692588
1.70105
-0.297993
1.70105
3.56634
-0.167194
-3.56634
-0.0966689
-6.63155
-0.085622
6.63155
-0.15473
-2.09651
-0.438808
2.09651
-0.395459
-4.26687
4.3046
1.90901
-2.47512
-2.20708
-4.85357
1.85154
1.90128
4.30275
-10.1628
-5.93525
-9.88516
7.2602
-6.97064
-9.27479
9.19761
7.61421
-7.76793
-5.7871
5.83302
6.48254
-6.44136
1.8787
1.87492
7.85615
-7.65248
-15.6687
15.2928
7.45759
-7.36966
15.8247
-15.8534
-17.8851
17.9436
-5.71639
5.81881
-6.72589
6.72561
-6.94454
6.89071
-3.42262
-3.68734
13.1122
-12.9423
8.29383
-8.24987
-8.50884
8.8609
3.38195
0.922657
3.4289
-1.88234
3.76104
-1.87132
3.78033
2.65305
-6.07568
2.96663
-5.17371
3.88019
4.41364
-3.86061
-0.992965
-5.91858
5.94842
-5.82227
5.88085
8.99405
-9.07801
-1.8852
3.76012
-1.86866
3.76994
-3.42651
-2.36059
3.3804
0.922353
8.00997
5.10227
-8.23895
-1.64621
-7.92733
7.76013
-8.1696
7.9881
-0.436099
5.81702
-5.38092
4.42805
-1.55263
7.36965
5.70757
5.92431
5.86523
-5.5865
1.10541
-6.48633
-6.3973
-2.52272
2.63514
2.44936
-2.32166
5.97869
1.63553
5.82747
-5.61108
-2.15685
-5.72874
3.82183
2.01119
3.87079
4.07663
2.40591
4.11667
3.03076
-3.03558
0.0048131
-3.05624
6.08701
0.724544
-5.41684
-4.49449
4.91401
2.94215
5.08228
-5.45607
-2.19641
-5.11471
-9.54685
-6.12182
-10.1123
10.1235
5.16938
9.81709
-12.0099
11.8552
4.75184
2.70574
4.79725
-4.88851
-2.48115
-4.7975
11.6515
-2.58183
-9.06964
-10.3451
-7.54003
10.3174
5.50726
10.959
6.98463
11.0652
4.43613
7.21533
-9.9434
2.40337
-3.86833
-1.84806
-3.79161
3.69192
2.1269
3.80382
-4.21267
-2.51322
-4.19098
-4.28722
-2.65732
4.30309
2.42252
-4.39961
-3.76999
4.50421
2.3865
4.24589
-10.1811
4.49394
-8.18127
-9.21119
-3.73115
-9.04656
3.60674
2.77667
-6.38341
-2.46894
8.63561
-4.22197
7.64264
-5.05161
-3.19826
-5.00602
-6.78544
-1.7234
-6.64772
-8.8462
8.36718
-9.18023
8.53099
12.6135
-5.70368
-6.9098
-3.96843
-2.47293
3.92033
-0.491425
-3.71078
3.71559
0.0502612
3.83059
4.75325
4.26183
-3.88795
-1.93432
-3.83268
3.83274
2.04811
3.89507
6.77184
2.22221
6.76666
-6.48781
-2.59019
-6.62032
9.03995
-8.65573
2.8931
-2.8635
5.33333
2.65477
-5.15676
-2.77057
6.19736
-3.17182
-3.02554
-12.2099
10.5755
1.63442
-4.84026
-0.412209
-0.161548
-5.49339
-3.7814
5.36983
0.554485
11.13
7.34857
-5.51267
5.76078
6.16346
6.22303
-0.174275
5.77669
-5.14825
5.32466
-2.41958
-2.90507
5.33264
-5.48975
-1.28768
-5.31131
4.02363
0.337721
1.68651
-1.43159
-1.977
-0.545712
-1.90838
1.46865
0.980709
1.60275
0.958381
1.67676
-2.95777
0.548938
2.40883
-1.99939
-1.77272
-3.70821
-1.08391
4.79212
5.66303
2.0971
-5.56636
-0.162375
2.66017
-2.61724
-0.75587
-2.95234
2.16169
-2.91756
-3.69364
-1.88636
5.58
-3.37124
-0.461438
3.31786
0.552931
-3.82525
-2.09333
3.78571
0.33096
-3.12496
6.18857
-3.06361
-5.05928
2.52889
3.55812
4.54008
-4.78906
2.44622
2.34285
-1.23095
4.19947
0.882807
4.33202
-6.73029
4.53388
5.72978
3.13112
-6.04321
0.928497
-5.80179
8.44707
-7.26975
-1.17733
4.09234
4.35473
7.15126
5.46222
-5.73189
12.8832
-1.18529
-6.08446
6.98708
-3.85596
4.76864
-8.6246
-10.2309
4.1464
-9.22414
10.9951
-1.771
-3.63587
-8.37407
12.86
-1.21585
-11.6442
8.60125
-4.14837
-4.24303
8.39141
-6.7302
6.72418
-1.93991
-4.78428
-10.1416
-5.71184
10.2272
1.62803
-9.83073
12.2341
-2.6154
4.0735
0.723748
4.08019
3.22355
-5.38185
2.1583
3.50666
-5.44657
2.05447
-7.43631
-6.7838
12.1297
-5.34588
-10.5149
-9.56857
-0.946381
2.50369
9.73041
-9.48832
7.40352
2.0848
3.30919
0.58588
-3.37786
-0.413752
0.254365
4.53142
-4.78578
4.05819
4.212
3.34788
1.18353
3.84063
2.10778
-3.86687
-0.324108
-4.15382
1.49649
-1.73129
-3.67606
5.17256
-4.06661
0.390546
-2.73716
-3.51096
6.24812
-4.58523
3.03808
3.15049
5.08619
-4.91463
1.40367
-2.40192
-2.51271
2.66294
-4.39423
1.97163
3.20093
4.35813
0.588141
5.97375
6.15592
-8.75042
0.569145
11.2582
-9.61199
2.49924
8.56595
-9.90276
0.334195
-8.71236
1.1546
-5.37656
-5.22881
5.09366
-6.81706
-3.53094
6.14321
0.623454
-6.22917
-0.418546
-6.0255
-2.8207
-6.46431
-3.05105
-6.12919
-8.78294
-1.63869
-7.14425
6.72849
-6.6784
-3.43391
7.41749
1.1135
-7.38844
7.31437
-7.4669
7.16891
0.0949613
3.62063
4.35679
1.88386
-2.38969
4.27354
-5.06653
7.28874
-8.53814
3.47161
4.00391
-6.5941
-4.53423
5.02964
4.01031
5.31551
8.9096
-10.4164
1.50682
-10.7308
12.0388
-1.30801
-16.4871
5.75637
-7.57754
2.60633
0.286769
2.63214
0.620861
2.48049
-3.10135
-2.24264
-2.2043
-2.35826
-3.4468
5.80506
1.15431
-3.46026
2.30595
-3.51718
4.67149
-0.0854429
-3.37482
5.30902
-2.82853
5.59579
-3.60262
1.99316
3.36884
5.73307
-2.36424
4.37183
-1.71706
1.84555
-4.20978
-1.60126
-2.96908
5.09598
-3.27904
3.66959
-0.310191
3.97978
-4.08246
0.910637
-0.734576
3.47742
3.73222
4.27928
-3.09575
2.95604
-4.6731
-1.25374
-4.08496
-0.884029
-0.295485
-3.7492
4.04468
6.03166
-6.32714
-5.23052
9.54437
-4.31385
7.72522
-5.39242
-2.33281
-4.24642
-4.40931
3.86208
1.9146
9.63983
0.233534
-5.62595
-4.91472
-4.02045
3.20142
2.12324
-1.90286
3.53728
2.06441
-0.377897
0.545376
1.05737
1.86605
-1.32067
0.225083
1.64096
-1.2065
1.94949
0.710672
-1.99126
0.0828836
-1.34772
3.50941
1.06111
-2.04182
0.721151
1.05928
-3.47886
4.90313
-2.52016
-2.38297
5.96241
1.14495
-3.66511
4.16636
-3.82864
2.33597
-3.41988
-1.32913
-5.15778
-3.52225
-2.58329
4.88924
-3.22177
5.31888
1.1956
-5.1565
6.3521
-3.57907
1.6927
-3.09562
3.80629
-1.09242
-2.0032
2.83906
2.74094
-2.95828
0.00593858
-0.119216
2.34835
-2.46756
-0.569215
-2.5686
-4.57304
4.904
-2.10641
4.55263
2.16713
-1.91514
6.46776
1.81066
-3.7258
-3.24862
-3.71006
-1.38296
3.15713
-0.572037
-4.22547
-5.35631
4.11742
0.214601
-6.8547
7.65101
-0.796302
-3.91256
-0.621324
4.71367
-5.92068
0.474113
-3.86621
3.78479
4.6676
4.8822
-11.431
-0.213179
-6.2616
1.1484
-7.41
5.50313
-3.59947
7.74587
-10.3972
6.96327
-9.28369
6.56855
-0.841451
6.26256
-4.10426
2.80708
-8.51892
-6.89088
5.40539
-2.69965
6.12914
-3.07636
9.2055
-5.69176
5.17186
4.03364
-0.951991
-4.05402
-5.19903
4.24704
-0.0271746
4.05301
4.97197
-2.86419
4.64786
2.2596
-4.66152
-2.13464
-6.50113
1.83961
-3.35064
-1.91651
3.75612
3.16968
3.75556
1.24342
-3.34181
7.25128
-8.19766
-1.9054
-3.32341
5.20732
-0.960278
3.36751
-6.69091
-2.00906
4.87263
-0.842918
-4.02971
0.831054
-4.36199
1.64983
-6.01182
5.16723
-5.58578
2.18999
-9.76753
-5.19845
-5.12919
-2.2309
-5.236
-7.60065
5.36975
-1.84428
5.47009
-8.56098
7.71806
-3.47781
8.84756
-5.43063
-1.03368
5.82608
1.34282
10.1904
0.169495
-4.70373
-1.88963
3.94801
-2.05838
1.31179
-3.5797
0.368306
2.48725
3.47515
-6.51088
-0.0832171
-4.78695
-3.92551
7.93582
5.61886
11.6505
1.23409
9.11735
-1.18153
10.3514
4.13398
4.3686
-3.01782
4.52465
1.02686
4.49847
-0.83902
2.83218
1.79312
1.78826
0.828983
2.32873
1.40349
3.23937
0.138018
-2.06628
4.63375
-8.6542
-0.992199
-8.06947
1.12815
5.82498
-4.69684
3.08901
-0.965767
1.03062
0.105529
-1.62437
1.51884
-2.79955
-2.00226
-0.361301
-1.63833
2.35948
1.87108
-1.99818
-0.801369
0.343585
-3.86583
3.0763
-3.07036
-0.32942
6.02268
-2.76476
0.297201
-1.07206
-2.2714
-2.81712
2.73423
6.17608
0.291688
3.11246
5.19569
3.10236
0.238174
3.87689
-5.6479
-3.55942
-5.86108
-0.357946
4.35572
1.75427
7.97614
5.78791
4.82763
-1.86328
-10.0609
6.53176
-2.00711
5.22375
-1.19404
-4.81778
4.98109
2.30765
-5.60454
0.0187671
-4.79901
-6.80612
-0.555449
8.27351
-9.63493
8.60125
5.78055
1.36371
-4.40418
-0.725012
4.2275
0.141105
10.4925
-1.18046
-6.74209
7.92255
-4.64453
3.65233
0.785134
2.75215
2.30397
1.33821
-5.40388
-10.1007
-1.93167
-1.5472
-4.31463
0.477483
-2.34857
6.27326
-2.62094
3.94045
5.30161
6.33223
-2.15033
-4.17681
6.46418
-2.52373
3.80851
)
;

boundaryField
{
    wall-4
    {
        type            calculated;
        value           uniform 0;
    }
    velocity-inlet-5
    {
        type            calculated;
        value           uniform -3.75095;
    }
    velocity-inlet-6
    {
        type            calculated;
        value           uniform -5.62643;
    }
    pressure-outlet-7
    {
        type            calculated;
        value           nonuniform List<scalar> 8(2.99173 7.00891 3.74154 9.72419 8.24924 5.01945 6.51721 9.26106);
    }
    wall-8
    {
        type            calculated;
        value           uniform 0;
    }
    frontAndBackPlanes
    {
        type            empty;
        value           nonuniform 0();
    }
}


// ************************************************************************* //
