/*--------------------------------*- C++ -*----------------------------------*\
| =========                 |                                                 |
| \\      /  F ield         | OpenFOAM: The Open Source CFD Toolbox           |
|  \\    /   O peration     | Version:  4.0                                   |
|   \\  /    A nd           | Web:      www.OpenFOAM.org                      |
|    \\/     M anipulation  |                                                 |
\*---------------------------------------------------------------------------*/
FoamFile
{
    version     2.0;
    format      ascii;
    class       volVectorField;
    location    "37";
    object      U;
}
// * * * * * * * * * * * * * * * * * * * * * * * * * * * * * * * * * * * * * //

dimensions      [0 1 -1 0 0 0 0];

internalField   nonuniform List<vector> 
918
(
(0.985092 -0.000547027 0)
(0.00478565 2.96626 0)
(-0.0117964 0.788336 0)
(0.979828 0.00240837 0)
(-0.0761297 1.87221 1.31064e-21)
(-0.00704758 2.94891 -1.15231e-18)
(0.827558 1.18505 1.56874e-19)
(0.298602 0.144915 -7.00675e-21)
(0.999905 -0.000302416 0)
(0.0444927 0.857209 0)
(0.0145606 0.669872 0)
(0.731236 -0.0115987 0)
(0.011499 2.93012 0)
(0.00314905 2.79466 0)
(-0.0198652 3.15322 3.16347e-19)
(-0.0101541 1.84113 -2.24524e-20)
(0.372916 0.04564 4.61013e-19)
(0.186984 1.20433 1.01329e-19)
(0.961984 0.00388393 0)
(0.0103363 0.626486 0)
(0.0715828 0.181006 -3.32682e-19)
(1.00217 -0.00520249 0)
(1.00076 -0.0101564 0)
(0.97597 -0.00653502 0)
(0.578992 -0.0253158 0)
(0.0181006 2.63707 0)
(-0.0148155 2.91012 4.08905e-19)
(-0.00796041 0.838247 0)
(-0.0177892 1.00422 0)
(-0.00692328 0.814779 0)
(-0.085222 2.58368 0)
(-0.0522298 2.00474 -1.01902e-21)
(-0.0303186 1.7539 0)
(-0.0204531 2.98751 -4.16512e-23)
(-0.0169841 3.0054 9.15358e-19)
(0.00201789 3.00016 0)
(0.870536 -0.00872104 0)
(0.436517 0.971699 9.41929e-20)
(0.801805 1.20153 -1.48448e-19)
(0.948433 1.03804 1.79696e-19)
(0.672751 1.29853 -3.58059e-20)
(0.672709 1.28576 2.11915e-19)
(0.34268 0.227656 6.83182e-21)
(0.312179 0.117974 0)
(1.13005 0.572896 0)
(0.310981 0.21912 3.12135e-20)
(0.266288 0.149785 -3.24098e-20)
(0.919528 -0.00727032 0)
(1.00028 0.000152194 0)
(0.999916 0.000339677 0)
(1.00351 -0.00767879 0)
(1.00096 -0.000946764 0)
(1.00019 2.25742e-05 0)
(0.0661987 1.79265 -3.72473e-19)
(0.026767 1.0343 0)
(0.0694075 0.919069 0)
(0.0106513 0.985323 0)
(0.0304615 0.802458 0)
(0.0217009 1.99294 0)
(0.0257063 0.84372 0)
(0.0249553 0.696755 0)
(0.00252023 0.827398 0)
(-0.00133917 0.65062 0)
(0.837267 -0.0142728 0)
(0.849127 0.0277658 0)
(0.766166 -0.00204143 0)
(0.822078 0.036805 0)
(0.69845 -0.0141786 0)
(0.0153337 3.00066 4.19575e-19)
(0.0117098 3.00834 0)
(0.00650833 3.00257 0)
(0.0141518 2.9972 4.72544e-24)
(0.00836405 2.95852 -6.34106e-19)
(0.0151984 2.98186 0)
(0.0112033 2.90367 0)
(0.0257519 2.93014 9.4631e-25)
(0.0049246 2.82477 0)
(0.0317307 2.9158 0)
(-0.0053832 2.74566 0)
(0.304358 3.54671 0)
(-0.145772 3.62376 0)
(0.135585 3.24535 -2.92003e-19)
(-0.0105834 2.9843 0)
(-0.0333797 2.20566 0)
(-0.0116949 2.10094 2.21401e-20)
(0.00993185 1.86924 -2.63963e-20)
(0.471182 0.142523 -1.59555e-19)
(0.365214 0.0294024 -1.53855e-19)
(0.455807 0.164405 -4.80021e-19)
(0.35652 0.0669572 -3.16925e-19)
(0.187775 0.939412 0)
(0.240133 1.34285 -1.27865e-19)
(0.36654 1.2946 2.17742e-19)
(0.987358 0.008236 0)
(0.941309 0.00547982 0)
(1.00031 0.000430671 0)
(1.00326 0.00949566 0)
(1.00287 0.00785169 -1.23901e-18)
(0.991774 0.00988825 9.461e-19)
(-0.00423783 0.796487 0)
(0.00286597 0.642977 0)
(0.0144219 0.863207 0)
(-0.0155491 0.788325 0)
(-0.00845337 0.631596 0)
(0.119813 0.188736 1.03118e-19)
(0.17343 0.169136 0)
(0.993355 -0.00825638 0)
(0.954464 -0.00615692 0)
(0.773576 0.0444185 0)
(0.710332 0.0572114 0)
(0.658909 -0.0235534 0)
(0.95743 -0.00733088 0)
(0.62098 0.077444 0)
(0.445571 -0.002471 6.73534e-19)
(-0.0363267 2.86519 3.12731e-19)
(0.0425679 2.90917 0)
(0.0550169 2.88444 0)
(-0.00390324 2.69814 0)
(-0.0139077 2.98491 3.87934e-19)
(-0.018191 2.89496 0)
(-0.0159696 2.98801 -1.20321e-18)
(-0.0131999 2.92534 4.12833e-19)
(0.0814545 1.26027 0)
(0.0428104 1.33999 0)
(-0.0222447 2.05728 -5.82037e-22)
(-0.040009 2.00796 0)
(-0.00924707 1.80903 0)
(0.937894 -0.00778861 0)
(0.856703 -0.00801944 0)
(0.862767 0.00596321 0)
(0.949036 -0.00787266 0)
(0.883569 -0.00739688 0)
(0.545366 1.16629 -1.19345e-19)
(0.595236 1.20562 0)
(0.404041 0.924022 1.67792e-20)
(0.343743 0.77859 0)
(0.911545 1.07455 -4.6883e-20)
(1.01881 0.878847 9.36682e-20)
(0.363352 1.38549 0)
(0.528409 1.36156 0)
(0.532846 1.31383 0)
(0.12037 0.208387 -1.3622e-19)
(0.37951 0.218015 0)
(0.343473 0.105721 8.93894e-20)
(0.99474 0.932978 0)
(1.06369 0.785721 0)
(1.08593 0.726848 -6.62036e-20)
(1.10932 0.628231 0)
(1.15054 0.41023 2.33859e-20)
(0.95757 -0.00850347 0)
(0.962306 -0.0102772 0)
(0.901899 -0.00739277 0)
(0.984332 -0.0091988 0)
(0.974806 -0.00936743 0)
(0.93741 -0.0059857 0)
(1.00017 0.00215031 0)
(1.00087 0.00142283 0)
(0.999869 0.000909488 0)
(0.0266655 2.0583 2.03096e-19)
(0.0987863 1.74349 0)
(0.0103131 2.16723 3.26144e-19)
(0.0492082 1.85111 -2.79506e-19)
(0.101014 1.21583 -8.2303e-20)
(0.0415988 1.09976 0)
(0.116935 1.0617 0)
(0.00855258 0.934527 0)
(0.0152409 0.765379 0)
(-0.00659337 2.21486 -7.66871e-22)
(0.0282184 1.98284 0)
(-0.00734993 2.19671 -3.94257e-20)
(0.0282956 1.98832 7.38999e-20)
(0.00817565 0.901076 0)
(0.0153923 0.872888 0)
(0.0232108 0.728305 0)
(0.00238095 0.824866 0)
(-0.00761984 0.64685 0)
(0.934714 0.0089228 0)
(0.842101 -0.0150384 0)
(0.925233 -0.00135198 0)
(0.83888 -0.0118987 0)
(0.811324 0.00138848 0)
(0.901733 0.0193234 0)
(0.878823 0.023398 0)
(0.788087 3.45038e-05 0)
(0.0042084 3.06446 -3.73282e-21)
(0.0167039 3.05754 0)
(0.0152945 2.96899 0)
(0.0089582 2.87631 0)
(0.96254 3.9836 0)
(1.307 3.2466 4.44928e-19)
(0.0695965 3.07677 0)
(-0.0245183 2.9078 0)
(0.114484 1.47946 0)
(0.0345387 1.88153 0)
(0.0362411 1.73836 0)
(-0.0547835 2.53541 7.84085e-21)
(-0.0372636 2.36081 0)
(-0.0860579 2.4713 0)
(0.0288785 1.95118 1.01702e-21)
(-0.0186557 2.13746 2.73591e-20)
(-0.0180153 2.12214 2.68594e-20)
(0.0253567 1.91177 0)
(0.495996 0.119014 2.39082e-19)
(0.380587 0.0106247 -2.34957e-19)
(0.271781 1.56849 0)
(0.245574 0.727514 -1.33098e-19)
(0.177397 1.66032 -4.42343e-19)
(0.202565 1.19556 4.43355e-19)
(0.901698 0.00590132 0)
(0.967356 0.0107125 0)
(0.974412 0.0106774 0)
(0.923192 0.00594228 0)
(-0.00694064 0.825406 0)
(0.00482866 0.809476 0)
(-0.0016211 0.650969 0)
(0.268895 0.215231 2.87876e-19)
(0.224144 0.198935 -3.40837e-19)
(0.229145 0.163837 0)
(1.07786 0.0811115 1.42657e-20)
(1.05624 0.0352528 0)
(0.998486 0.0374174 0)
(0.895837 -0.00757283 0)
(0.521279 0.0911917 0)
(0.55282 0.0741137 -1.07867e-18)
(0.406429 0.00383401 4.04605e-19)
(0.00916766 2.98183 3.2961e-19)
(-0.0324434 2.86732 1.93485e-20)
(0.00187336 3.04965 -7.87618e-21)
(0.0208298 3.04316 2.90243e-19)
(-0.0153194 2.99629 1.35297e-20)
(-0.0127708 2.94946 -5.45048e-23)
(-0.0175726 3.0115 -2.47865e-19)
(0.0142408 3.02298 1.78452e-19)
(0.00674097 3.03679 -2.90099e-19)
(0.932301 -0.0023202 0)
(0.938555 -0.00341318 0)
(0.843445 -0.00756352 0)
(0.956436 0.0114891 0)
(0.942812 0.0127904 0)
(0.881222 0.00553298 0)
(0.918061 0.0157064 0)
(0.926419 0.0146412 0)
(0.838395 0.00341812 0)
(0.759704 1.4325 6.52862e-21)
(0.80255 1.52437 0)
(0.222529 0.354521 3.40982e-20)
(0.244085 0.712369 2.72798e-19)
(0.290374 0.767957 -1.62472e-19)
(0.304769 0.561018 3.16309e-19)
(0.333689 0.811027 7.06716e-19)
(0.13301 0.238077 1.59179e-19)
(0.427302 0.1881 3.35839e-19)
(0.404463 0.206807 8.72555e-20)
(0.356583 0.0849385 1.67205e-19)
(1.14262 0.466914 -9.99661e-21)
(1.15057 0.263734 -1.31622e-20)
(0.00437789 2.21508 1.30251e-19)
(0.0455172 1.91294 0)
(0.961994 0.0293104 0)
(0.937009 0.0118807 0)
(0.862405 -0.01831 0)
(0.0113339 3.07434 0)
(0.020708 2.94405 5.32012e-19)
(0.0171575 2.9563 0)
(0.00664229 2.8505 -5.30239e-19)
(0.00578331 3.09186 1.2619e-19)
(0.00570436 3.08168 0)
(0.887627 1.82828 -6.37665e-20)
(1.27177 2.37975 1.02146e-19)
(0.867966 1.93249 -4.61951e-19)
(0.0201428 2.98257 -2.89736e-19)
(0.0362992 3.00289 0)
(-0.0332707 2.87998 0)
(-0.00917186 2.1798 -3.19065e-21)
(-0.0125757 2.15596 -5.84698e-20)
(0.0234575 1.976 -1.67305e-21)
(0.276923 1.38445 4.3515e-19)
(0.198282 0.522586 -2.96191e-19)
(0.0524786 1.98686 3.37846e-19)
(0.153543 1.87997 -4.03138e-19)
(0.149074 1.47232 4.06421e-20)
(0.00511543 3.11826 -7.50709e-19)
(0.0111574 3.11896 8.50399e-19)
(-0.00973998 2.98039 3.59602e-19)
(-0.00460357 2.9777 -3.4256e-19)
(-0.0217482 2.88139 -3.66444e-19)
(0.00753841 3.0987 -9.41223e-19)
(0.000586812 3.10523 9.57096e-19)
(0.291127 0.726167 0)
(0.256263 0.724004 -5.63228e-19)
(0.114225 0.24618 2.50576e-19)
(0.350587 0.931361 4.74238e-19)
(0.181801 0.276848 -7.32059e-19)
(1.15303 0.172468 4.10786e-20)
(1.15417 0.3133 0)
(1.13683 0.123534 -1.93437e-20)
(-0.00323937 2.22611 -1.05566e-21)
(0.000198236 2.22741 0)
(0.0288402 1.95631 0)
(0.35062 1.28849 -1.56218e-19)
(0.37355 1.12598 -3.38635e-19)
(0.187044 0.366276 6.03661e-19)
(1.00553 -0.0111857 0)
(1.00751 -0.00744403 2.30261e-19)
(0.0542192 1.25486 0)
(0.015872 1.145 0)
(1.00198 0.00345073 7.99235e-22)
(1.0038 0.0100382 4.656e-19)
(-0.0572251 2.54121 -1.02397e-20)
(-0.0447342 2.56359 0)
(0.0351934 3.17863 2.10638e-19)
(0.388032 3.48224 0)
(1.15483 0.646122 -3.96936e-20)
(1.01321 0.0135917 -7.62678e-22)
(1.02119 -0.0107477 0)
(1.00175 0.000102051 2.61592e-23)
(0.0979111 1.3474 0)
(0.156752 2.57684 0)
(0.0165531 1.29313 0)
(0.00268131 2.62957 4.3177e-20)
(-0.0226897 2.58473 3.0554e-20)
(1.00287 0.0285582 1.02223e-21)
(1.06154 0.00301902 0)
(1.09282 0.0216101 0)
(0.015447 1.90007 0)
(-0.0295313 2.58072 0)
(0.0421296 1.26284 0)
(0.305916 1.4609 -4.41789e-20)
(1.01123 -0.00990316 0)
(1.00939 -0.0153683 0)
(1.00239 0.000620017 2.92443e-19)
(1.00538 -0.00479898 -3.47184e-19)
(1.0012 -0.00105526 0)
(0.0621942 1.58385 0)
(0.0817358 1.36263 0)
(0.0723665 1.506 0)
(0.0502253 1.24413 0)
(0.025076 1.16009 0)
(0.0062938 1.11686 0)
(1.03413 -0.00704118 0)
(1.02102 0.0161485 -3.59171e-22)
(0.804586 1.25428 7.39253e-20)
(1.00223 0.00036885 -2.91836e-19)
(1.00402 0.00533803 3.46759e-19)
(1.00118 0.00211823 0)
(1.01348 0.0105423 2.89665e-19)
(1.00856 0.00867402 -3.50429e-19)
(1.00928 0.0156576 0)
(-0.0369383 2.59947 0)
(-0.0399624 2.57555 2.37012e-20)
(-0.0386775 2.58794 -1.60661e-20)
(1.22468 0.2424 3.04199e-19)
(1.15352 0.0763736 0)
(0.0452231 3.07634 -4.41026e-19)
(0.0652688 2.85237 -3.13665e-20)
(0.143142 3.19401 6.73942e-19)
(0.141101 3.22297 -9.84544e-20)
(0.132321 3.23719 0)
(0.0191405 3.13712 1.17699e-19)
(0.0761107 3.1608 4.30303e-19)
(0.0685017 3.18559 -2.23862e-19)
(0.0233844 3.12899 0)
(0.661295 0.29634 0)
(0.573836 0.344725 0)
(1.10141 0.671198 1.02544e-19)
(1.13001 0.804381 -1.11746e-19)
(1.169 0.555531 0)
(1.21645 0.501955 0)
(1.01635 0.0136841 -5.47229e-19)
(1.01513 0.0148511 6.86006e-19)
(1.02511 -0.0101999 0)
(1.02311 -0.0124678 0)
(1.0064 0.00256948 0)
(1.01014 0.00360194 0)
(1.00462 0.00187032 0)
(1.00984 0.00604028 0)
(1.00801 0.0062822 0)
(1.00445 0.00440925 0)
(0.0866943 1.3427 0)
(0.0813948 1.31555 0)
(0.117249 1.37883 0)
(0.135697 1.39456 0)
(0.148318 2.6 0)
(0.189108 2.6623 -2.05782e-19)
(0.0988753 2.65844 0)
(0.0923953 2.6594 1.06867e-19)
(0.0422231 2.68939 -9.969e-20)
(0.0341002 1.3112 0)
(0.023826 1.23613 0)
(0.0377286 1.31353 0)
(0.0323103 1.25709 0)
(-0.00256099 1.98595 -2.70519e-20)
(-0.024685 2.61345 2.58442e-20)
(-0.0121881 2.67246 4.19456e-20)
(-0.0187111 2.68746 0)
(-0.0294248 2.61739 -7.10145e-20)
(-0.0278015 2.61048 -4.32921e-20)
(0.00978666 1.98643 2.17061e-20)
(-0.0158305 2.41215 -3.34474e-20)
(-0.018171 2.43059 -4.98523e-20)
(1.01205 0.0360884 5.49873e-19)
(1.00797 0.0174982 -6.84341e-19)
(1.00387 0.0421535 -5.53619e-19)
(0.984034 0.022849 7.02526e-19)
(1.06261 0.00717927 0)
(1.04804 -0.00922027 0)
(1.09138 0.0306329 0)
(1.07217 0.0111093 0)
(1.06999 -0.000800932 0)
(1.13255 0.0789382 0)
(1.10676 0.0404854 0)
(1.11122 0.0272524 0)
(-0.0651771 2.4601 -3.82468e-21)
(0.0163419 2.10661 0)
(-0.0366424 2.28779 0)
(-0.0318352 2.60028 1.23462e-20)
(-0.0264275 2.60921 -6.3884e-22)
(0.0290076 1.65222 2.68254e-20)
(0.038682 1.60552 -2.70045e-20)
(0.0477658 1.41082 0)
(0.0472616 1.42216 0)
(0.0425745 1.43396 0)
(0.0389622 1.28643 0)
(0.0200575 1.17676 0)
(0.379238 1.47822 6.39931e-20)
(0.425985 1.48195 4.30641e-20)
(0.592991 2.43905 -1.06407e-19)
(0.405216 2.53831 3.1376e-19)
(0.348995 2.06932 3.91675e-20)
(1.02107 -0.00821833 0)
(1.01544 -0.00991511 0)
(1.01494 -0.0160866 0)
(1.00737 -0.00128684 0)
(1.00493 -0.00106881 0)
(1.00771 -0.00466875 0)
(1.00918 -0.0037828 0)
(1.01407 -0.00453079 0)
(1.02171 0.0161957 5.38195e-19)
(1.01828 0.0162256 -6.83261e-19)
(1.02207 0.0180852 -5.38736e-19)
(1.01986 0.0169691 6.765e-19)
(0.770772 1.30464 0)
(0.709947 1.35664 6.61543e-20)
(0.872307 1.21433 1.24547e-20)
(0.931989 1.15448 -1.65617e-20)
(1.15646 2.60288 1.75335e-19)
(0.813624 0.106811 2.6556e-19)
(1.14958 0.103858 0)
(1.20105 0.184068 -2.4378e-19)
(1.19326 0.138686 -1.0313e-20)
(1.00252 0.141885 0)
(0.158936 2.96039 2.41904e-19)
(0.115261 2.8672 -5.90872e-19)
(0.029643 2.37954 3.68237e-19)
(0.0959829 0.00624345 -1.57513e-19)
(0.336471 3.42415 -7.14917e-20)
(0.195902 3.32145 0)
(0.228503 3.35634 9.30397e-20)
(0.256415 3.0411 -7.71415e-19)
(0.359718 3.20199 0)
(0.00673286 3.12041 2.2323e-20)
(0.0175635 3.12893 -2.64464e-19)
(0.0156774 3.12481 3.87862e-19)
(0.0353064 3.13964 0)
(0.0332823 3.15037 0)
(1.19013 2.64322 0)
(0.540833 0.842832 -2.31998e-19)
(1.0577 0.975646 2.21762e-20)
(0.961606 1.06967 0)
(0.810679 0.9501 -6.04172e-20)
(1.04487 0.880397 1.08268e-20)
(0.351915 0.404437 -4.18265e-19)
(0.697873 0.324574 -8.54826e-21)
(0.669552 0.24027 1.89681e-19)
(0.586646 0.39011 1.39776e-20)
(0.504403 0.344735 -5.64138e-19)
(0.668197 0.346273 0)
(0.710306 0.425243 3.19793e-19)
(0.716744 0.417006 0)
(0.621249 0.381392 0)
(0.602041 0.291599 0)
(0.793913 0.609417 1.9517e-19)
(1.20774 0.271857 -2.61958e-19)
(1.21098 0.406919 0)
(1.23577 0.344505 0)
(0.750269 0.192845 2.82831e-19)
(0.844452 0.540074 -1.76889e-19)
(0.746131 0.512382 3.14614e-19)
(0.94914 0.419534 -3.48643e-19)
(1.0201 0.0147318 3.66246e-19)
(1.01817 0.0144147 -3.6857e-19)
(1.01593 0.0162845 0)
(1.03567 -0.00638506 0)
(1.02949 -0.00878596 -3.46216e-19)
(1.02728 -0.0128069 3.43507e-19)
(1.02513 0.00959451 0)
(1.02384 0.0131424 0)
(1.01121 0.00396646 0)
(1.01433 0.00887415 0)
(1.01471 0.00404282 0)
(1.01385 0.00295918 0)
(0.0552449 1.32284 0)
(0.0621511 1.28592 0)
(0.142248 1.34447 -3.24269e-20)
(0.274384 1.45818 2.10124e-20)
(0.160581 1.42857 4.34947e-20)
(0.198927 1.43889 -7.14978e-20)
(0.163045 1.37119 0)
(0.129716 1.59161 -5.57235e-20)
(0.11033 1.55691 0)
(0.352883 2.01715 -5.66051e-20)
(0.352158 2.36393 2.81066e-19)
(0.191084 1.44182 4.87228e-20)
(0.252816 1.3693 -5.74025e-21)
(0.201563 1.35499 4.61914e-21)
(0.26283 1.31615 -7.74255e-20)
(0.232786 1.57629 0)
(0.260313 1.60712 7.38515e-20)
(0.031599 2.2731 -2.58502e-20)
(0.0424057 2.6788 0)
(0.0621594 2.41208 8.97925e-20)
(0.055992 2.43595 0)
(0.0715071 2.67128 -1.18839e-19)
(0.0530554 2.7058 0)
(0.0274888 1.39924 -2.34367e-20)
(0.0328452 1.44947 0)
(0.032876 1.36692 0)
(0.0233715 1.37145 2.63846e-20)
(-0.00189716 2.65926 -9.88298e-21)
(0.0285278 2.70445 1.15897e-19)
(0.0111917 2.727 8.72046e-22)
(-0.0032627 1.83552 2.50642e-20)
(-0.0116772 1.677 1.14875e-20)
(0.0201801 1.28944 0)
(0.000892473 1.20655 0)
(0.0498904 1.56175 3.20052e-20)
(0.0274278 1.43291 3.11315e-20)
(0.0371253 1.4998 -3.88024e-20)
(0.0390019 1.58668 0)
(-0.0399472 2.28642 -2.08419e-20)
(-0.0439945 2.55457 8.76919e-21)
(-0.0188067 2.45407 -7.16869e-21)
(-0.0182114 1.85043 -3.02587e-20)
(-0.0360857 2.50133 -1.12694e-20)
(-0.0270447 2.44932 4.86175e-20)
(1.02023 0.0209502 -3.63993e-19)
(1.01651 0.0264028 3.65693e-19)
(1.01529 0.0169048 0)
(1.01163 0.0673759 5.09229e-19)
(0.99235 0.0568551 -5.69349e-19)
(0.953475 0.0403643 6.37275e-19)
(1.01509 0.100841 -6.81211e-20)
(1.04174 -0.00616844 0)
(1.04992 -0.00198916 3.32927e-19)
(1.03831 -0.0104273 -3.32053e-19)
(1.06977 0.0404824 -1.97274e-20)
(1.06328 0.0210929 1.69782e-19)
(1.06488 0.0511538 0)
(1.05113 0.0470257 -6.07918e-20)
(1.03404 0.0395035 0)
(1.02629 0.0361144 0)
(1.02753 0.013126 0)
(1.02427 0.0157982 0)
(1.03948 0.0309019 1.24895e-19)
(1.03961 0.0251385 -2.75014e-19)
(1.0494 0.0308 -1.33227e-19)
(1.04821 0.0310213 -1.46271e-19)
(1.06714 0.0605008 2.87306e-19)
(1.0917 0.0485333 0)
(1.10191 0.0902951 0)
(-0.0450391 2.27895 -2.26951e-20)
(-0.00779707 2.08213 -4.47473e-21)
(-0.0123864 2.0507 0)
(-0.0453294 2.4601 2.31354e-20)
(-0.0258007 2.42084 7.99468e-21)
(-0.0575981 2.4595 -6.78699e-21)
(-0.0276204 2.6216 3.77614e-20)
(-0.0387079 2.56193 -2.77171e-21)
(-0.0297908 2.51764 1.15338e-20)
(-0.0232615 2.61491 -1.8632e-20)
(-0.0277492 2.61595 2.30962e-20)
(0.0427151 1.54122 3.44164e-22)
(0.0252755 1.67544 2.96568e-20)
(0.362766 1.41925 -2.14444e-20)
(0.360107 1.36818 4.81975e-20)
(0.65273 1.40743 -6.39317e-20)
(0.5215 1.47288 -4.17274e-20)
(0.582679 1.44235 0)
(0.581457 2.41647 1.01731e-19)
(0.652777 2.41318 1.53026e-19)
(0.404958 2.51468 3.67779e-20)
(0.407954 2.54909 -2.89913e-19)
(0.521466 2.49799 2.76097e-19)
(0.542735 2.45501 0)
(0.479806 2.51112 -2.52493e-19)
(0.238232 2.58848 5.39438e-19)
(0.348186 2.56798 -3.41205e-20)
(0.282267 2.65161 -7.27957e-19)
(0.931119 2.37497 3.51495e-19)
(0.825433 2.38176 0)
(1.0109 0.000203074 1.18007e-20)
(1.0152 -0.005534 -9.77783e-21)
(1.01757 -0.00354701 -1.76238e-19)
(1.01483 -0.000962918 1.78135e-19)
(1.01217 0.000966881 0)
(0.636911 1.27291 0)
(0.64454 1.16782 0)
(0.743242 1.07122 0)
(0.643108 1.12761 0)
(1.18439 2.61343 2.70862e-20)
(1.07173 2.36044 0)
(0.850426 2.18057 1.96272e-21)
(0.821591 2.44637 0)
(0.921345 2.53748 -2.03144e-19)
(0.958694 2.49714 1.31982e-19)
(0.815827 0.152187 0)
(0.788372 0.127438 7.21207e-20)
(0.927348 0.139307 4.23978e-19)
(0.836859 0.128064 -1.58228e-19)
(0.82218 0.0781061 -4.86601e-19)
(1.07105 0.221145 -4.36516e-19)
(0.998683 0.286878 -6.12511e-21)
(0.920342 0.27062 3.95839e-19)
(1.0054 0.211265 3.33307e-19)
(0.954267 0.178078 -5.65216e-19)
(0.92221 0.180819 7.03815e-20)
(0.949909 0.232886 -1.52198e-19)
(0.932742 0.201273 0)
(0.994032 0.175975 2.79236e-19)
(1.04563 0.175573 0)
(1.04443 0.204978 0)
(1.09757 0.111967 1.35947e-19)
(1.07576 0.16462 -5.85148e-21)
(1.06821 0.222009 -7.29793e-20)
(1.10055 0.192294 0)
(1.02259 0.0435284 2.82679e-19)
(1.04289 0.056203 3.50725e-19)
(1.03472 0.0414999 -2.77562e-19)
(1.04192 0.0626507 -2.35641e-19)
(1.01774 0.0699464 -3.59237e-19)
(0.990197 0.146412 0)
(1.00068 0.0989533 0)
(0.971661 0.0661159 -2.26218e-19)
(0.922819 0.0860545 8.81457e-20)
(1.03763 0.0966076 3.26369e-19)
(1.06818 0.111945 -3.89233e-19)
(1.07331 0.141721 3.43834e-19)
(1.0285 0.138807 0)
(1.07128 0.103627 0)
(1.05639 0.0825934 -1.58011e-19)
(1.04473 0.0916165 -2.6719e-19)
(0.575135 1.07915 7.39822e-20)
(0.620939 1.3928 -3.80025e-20)
(1.1598 2.74044 -1.16671e-19)
(1.23642 3.07645 3.36872e-21)
(1.24886 2.7115 -1.06148e-19)
(1.27942 2.7097 -1.44427e-20)
(1.16577 2.35194 8.24499e-21)
(1.225 2.97005 -7.49236e-20)
(1.24657 2.93877 1.51362e-19)
(1.2418 3.23231 -7.13423e-20)
(1.36459 2.96802 8.24791e-20)
(1.30298 2.89249 0)
(0.546768 0.847417 -2.24205e-20)
(0.116804 1.24966 2.63231e-19)
(0.551139 0.459765 2.72998e-19)
(0.359706 0.201923 2.96893e-19)
(0.524583 0.393655 3.19578e-19)
(0.555668 0.47083 -5.25767e-19)
(0.546949 0.491539 4.30101e-19)
(0.492718 0.409524 -1.62659e-19)
(0.412028 0.336528 3.66527e-19)
(0.750731 0.251055 -1.61697e-19)
(0.715174 0.282816 0)
(0.702817 0.210079 3.72443e-21)
(0.731612 0.51597 1.68229e-19)
(0.706968 0.479758 -6.14936e-19)
(0.610495 0.478471 5.50962e-21)
(0.627469 0.461967 0)
(0.663946 0.735208 1.82632e-19)
(0.831409 0.778248 1.85494e-19)
(0.746625 0.859923 -2.15668e-19)
(0.865701 0.803635 -7.58443e-20)
(0.891323 0.835414 -2.09595e-20)
(0.897934 0.838175 2.15331e-20)
(0.841055 0.635517 -3.25432e-19)
(0.912014 0.70686 7.06888e-20)
(0.964899 0.712346 0)
(0.947275 0.68075 -1.00978e-19)
(1.02399 0.309787 1.01977e-19)
(1.11828 0.282311 1.51114e-19)
(1.05807 0.256077 1.74987e-19)
(1.01549 0.354643 -2.048e-19)
(1.0509 0.418649 0)
(1.09137 0.400148 0)
(0.912155 0.34318 2.77731e-21)
(0.842925 0.28225 0)
(0.873165 0.275838 1.84192e-19)
(0.910652 0.277251 -3.45012e-21)
(0.937986 0.420844 9.73146e-19)
(0.895401 0.484439 2.53745e-19)
(0.898503 0.447328 -2.67072e-19)
(0.817207 0.431759 2.86473e-19)
(0.802335 0.432045 1.71076e-19)
(0.769473 0.416699 -1.6656e-19)
(1.0278 -0.000544381 2.91439e-19)
(1.0199 -5.97315e-05 0)
(1.01855 0.000775756 1.92775e-19)
(1.02105 -0.00214657 -4.34596e-19)
(1.0221 0.00440724 2.11694e-19)
(1.02045 0.0111249 -4.45431e-19)
(1.02148 0.0104398 0)
(1.02113 0.0104103 -9.19593e-20)
(1.01591 0.00775173 2.30363e-19)
(1.01687 0.0102443 -1.16523e-19)
(1.01755 0.00951551 8.57998e-20)
(0.0300372 1.30343 0)
(0.0366202 1.33887 0)
(0.0386983 1.3019 0)
(0.0466748 1.26795 0)
(0.0651255 1.36591 4.60874e-20)
(0.0747827 1.33623 -9.73734e-21)
(0.113725 1.48925 -2.40929e-20)
(0.0865984 1.33909 1.84368e-20)
(0.0317193 1.43596 -4.47784e-20)
(0.0357703 1.42745 3.42037e-20)
(0.0591242 1.34634 -7.56323e-22)
(0.0537846 1.3464 -2.75076e-20)
(0.048137 1.32427 -4.21679e-21)
(0.0401853 1.34661 -5.07986e-21)
(0.108635 2.38213 -9.69271e-20)
(0.09201 2.42819 0)
(0.170724 2.07292 5.79091e-20)
(0.113157 1.7073 2.93799e-20)
(0.237252 2.05834 -4.60529e-20)
(0.208724 2.445 0)
(0.271936 2.39871 -2.80656e-19)
(0.308642 2.3971 1.98466e-19)
(0.226534 2.01164 -1.33534e-19)
(0.151979 2.1747 8.6084e-20)
(0.154861 2.29425 0)
(0.0108048 1.88321 -4.4814e-20)
(-0.00607092 2.41097 -7.24769e-20)
(0.000494463 2.16345 0)
(0.00926486 2.46962 -5.76129e-21)
(0.0231404 2.31628 2.67352e-20)
(0.0201056 1.38448 3.92699e-21)
(0.0187922 1.37368 -6.27813e-20)
(0.0171018 1.37973 1.74691e-20)
(0.0192993 1.37714 2.10576e-20)
(0.0262527 1.4036 0)
(0.0150837 1.3617 0)
(0.0165131 1.27724 2.44019e-20)
(0.0128055 1.35877 -8.22822e-21)
(0.011856 1.35023 0)
(0.0219144 1.26981 1.69492e-20)
(0.00776615 1.17634 -3.43023e-20)
(1.03938 0.010171 0)
(1.04528 0.00677396 -3.0995e-20)
(1.03862 0.0202955 -2.21915e-19)
(1.04731 0.0189306 0)
(1.05072 0.0188895 0)
(1.03652 0.0106111 -2.78083e-21)
(1.03135 0.0101523 3.5703e-19)
(1.03183 0.0158264 4.36852e-19)
(1.02585 0.019877 0)
(1.02349 0.0202806 0)
(1.03496 0.024698 2.22303e-19)
(1.02665 0.0255179 0)
(1.02494 0.0252637 0)
(-0.0354055 2.02632 0)
(0.0126315 1.67181 -2.53565e-21)
(-0.0164798 1.77905 -2.26404e-21)
(0.0190989 1.35863 0)
(-0.0109019 1.56342 1.71274e-20)
(0.0229468 1.47017 -1.08343e-20)
(0.0516152 1.40276 0)
(0.382024 1.6789 0)
(0.364887 1.29147 -8.73609e-20)
(0.311718 1.34144 0)
(0.421149 1.28721 7.30569e-20)
(0.467536 1.45041 0)
(0.447278 1.39595 -2.05756e-20)
(1.02973 2.68334 -7.55241e-21)
(0.95718 2.40978 -4.29465e-19)
(0.904862 2.18938 4.96267e-19)
(0.838494 2.37405 1.20138e-19)
(0.839105 2.49809 0)
(0.911245 2.49122 0)
(0.911791 2.36996 0)
(0.89506 2.35443 -4.39793e-19)
(0.685389 2.46198 -1.95057e-19)
(0.79564 2.45844 -4.668e-20)
(0.807781 2.42773 3.69837e-20)
(0.685231 2.38906 0)
(0.790354 2.38701 0)
(0.746164 2.39741 -1.65046e-19)
(0.764259 2.49336 0)
(0.613412 1.10499 0)
(0.482199 0.922895 -2.33229e-19)
(0.561806 0.95073 -1.50121e-20)
(0.522226 1.05194 0)
(0.524822 1.00373 3.5309e-19)
(0.770006 0.887861 -6.42598e-20)
(0.775977 1.00925 0)
(0.748932 0.955022 9.87239e-20)
(0.63402 1.0423 0)
(0.642534 0.94629 0)
(1.16508 2.75546 -1.21684e-19)
(1.14192 2.82107 -6.06207e-20)
(0.937737 2.33541 7.81841e-20)
(0.898666 2.31404 -4.60756e-20)
(1.12771 2.72573 0)
(1.08035 2.69426 5.80393e-20)
(1.08666 2.47766 -1.52566e-19)
(0.979235 2.23022 -1.36232e-20)
(0.493093 1.35464 0)
(0.501836 1.06995 -6.48345e-20)
(0.55919 1.14477 0)
(0.866028 0.216068 0)
(0.793364 0.168104 0)
(0.738709 0.137332 0)
(0.859134 0.219659 -2.91111e-19)
(0.767791 0.211373 1.70171e-19)
(0.937065 0.0736206 -1.83185e-19)
(0.951394 0.120106 0)
(0.929117 0.126831 7.84212e-20)
(0.868216 0.105267 3.15355e-19)
(0.849677 0.0656159 -1.97973e-19)
(1.17294 3.36671 -2.93627e-19)
(1.22439 3.28768 0)
(1.13903 3.38443 -5.80758e-19)
(0.638829 3.54303 5.06993e-19)
(0.850449 3.10875 7.0599e-21)
(0.50885 0.854828 2.71349e-19)
(0.417265 0.846883 0)
(0.327179 0.507272 -6.66027e-20)
(0.453462 0.682751 3.79751e-19)
(0.547448 0.472831 -9.33951e-20)
(0.519758 0.522577 1.04792e-19)
(0.657102 0.531239 2.29831e-19)
(0.691245 0.545946 0)
(0.646728 0.612224 0)
(0.602236 0.548184 0)
(0.966812 0.598165 5.47919e-20)
(0.8969 0.533162 -2.45033e-19)
(0.918179 0.566212 1.93969e-19)
(0.955155 0.504869 -1.91547e-19)
(1.06377 0.477998 0)
(1.05265 0.562271 -5.05025e-20)
(0.841787 0.386229 -3.89281e-19)
(0.846919 0.372428 -4.74674e-19)
(0.794087 0.377222 3.0179e-19)
(0.792138 0.35242 -3.06322e-19)
(0.841885 0.308404 -2.40622e-19)
(0.792898 0.3081 2.96203e-19)
(1.02664 0.00553388 -2.26494e-19)
(1.02634 0.00586046 4.69135e-19)
(1.02933 -0.000903659 2.82902e-19)
(1.03304 0.000415102 -3.42764e-19)
(1.03287 0.00722292 0)
(1.02997 0.0080196 -5.61233e-19)
(0.0623377 1.63655 1.66181e-20)
(0.044168 1.56241 0)
(0.0868998 1.68324 1.20226e-19)
(0.093774 1.66512 -1.07997e-19)
(0.0917618 1.50899 4.50112e-20)
(0.0890482 1.49267 0)
(0.00882888 1.68446 0)
(-0.00450202 1.48775 -9.57003e-21)
(-0.00778881 1.42721 8.59817e-21)
(-0.00456673 1.55912 9.05359e-22)
(-0.00478033 1.89086 -1.58055e-20)
(-0.0201672 1.94421 9.13404e-21)
(0.494711 1.371 -1.5533e-19)
(0.490088 1.37924 1.66822e-19)
(0.444277 1.28509 -4.81907e-20)
(0.433406 1.28932 5.53455e-21)
(0.623837 1.29451 0)
(0.544228 1.38174 8.92779e-21)
(0.56115 1.39202 -8.66279e-21)
(0.454789 1.27154 4.67169e-20)
(0.509 1.22827 0)
(0.554519 1.18962 0)
(0.647486 2.4201 2.92712e-19)
(0.669247 2.46217 5.72076e-19)
(0.708705 2.47647 -3.92442e-19)
(0.60819 2.45868 -9.11173e-20)
(0.562953 2.54449 1.34135e-19)
(0.524003 2.52594 -3.45176e-19)
(0.97264 2.37472 -2.76925e-19)
(1.0092 2.38568 0)
(0.915465 2.16775 -3.22207e-19)
(1.05049 2.67471 0)
(1.05342 2.66119 0)
(0.605512 2.25514 -8.58255e-20)
(1.02908 3.15795 3.06485e-20)
(0.896607 3.01741 2.63515e-20)
(0.286967 0.912598 0)
(0.32651 0.756321 -1.41602e-19)
(0.465944 0.723443 -1.45106e-19)
(0.402135 1.98294 0)
(0.479131 2.78631 -4.99812e-21)
(0.434685 2.56991 0)
(0.677406 0.672432 -3.86091e-19)
(0.762737 0.684019 5.23674e-19)
(0.790536 0.61902 -5.14836e-19)
(0.669731 0.637376 -4.9709e-20)
(0.720125 0.593687 -2.04836e-19)
(1.01336 2.76423 -2.31465e-20)
(1.04499 2.834 -7.44454e-20)
(0.656428 2.13947 3.18443e-19)
(0.583337 1.71654 -2.19391e-19)
(0.710083 1.90794 -2.02718e-19)
(0.994906 2.46929 -4.80114e-20)
(0.996568 2.45724 1.32312e-19)
(0.667712 1.87493 1.1477e-20)
(0.458852 1.33684 7.49706e-20)
)
;

boundaryField
{
    wall-4
    {
        type            noSlip;
    }
    velocity-inlet-5
    {
        type            fixedValue;
        value           uniform (1 0 0);
    }
    velocity-inlet-6
    {
        type            fixedValue;
        value           uniform (0 3 0);
    }
    pressure-outlet-7
    {
        type            zeroGradient;
    }
    wall-8
    {
        type            noSlip;
    }
    frontAndBackPlanes
    {
        type            empty;
    }
}


// ************************************************************************* //
