/*--------------------------------*- C++ -*----------------------------------*\
| =========                 |                                                 |
| \\      /  F ield         | OpenFOAM: The Open Source CFD Toolbox           |
|  \\    /   O peration     | Version:  4.0                                   |
|   \\  /    A nd           | Web:      www.OpenFOAM.org                      |
|    \\/     M anipulation  |                                                 |
\*---------------------------------------------------------------------------*/
FoamFile
{
    version     2.0;
    format      ascii;
    class       volScalarField;
    location    "15";
    object      p;
}
// * * * * * * * * * * * * * * * * * * * * * * * * * * * * * * * * * * * * * //

dimensions      [0 2 -2 0 0 0 0];

internalField   nonuniform List<scalar> 
918
(
0.211154
0.881123
0.00878507
0.210337
-0.000582838
0.848816
-0.856681
0.393073
0.191009
-0.226367
0.0187765
0.181761
0.709398
0.47615
-1.47731
0.0122288
0.348067
-0.727392
0.190229
0.00535771
0.463595
0.197377
0.200422
0.190931
0.25015
0.474035
0.589432
0.00505668
-0.00331472
-0.00152536
0.00314983
-0.0048629
0.00163579
0.732168
0.782785
0.805313
0.160753
0.00495299
-0.692559
-0.783563
-0.767939
-0.922799
0.382774
0.387817
-0.512142
0.394381
0.410428
0.178706
0.190354
0.191342
0.192309
0.191342
0.192721
0.254769
-0.284961
-0.346365
-0.147161
-0.104277
0.0675559
0.0216751
0.0163668
0.0244523
0.022476
0.12011
0.178964
0.176886
0.187208
0.196585
0.819905
0.7909
0.816541
0.733464
0.748338
0.687091
0.658906
0.49633
0.517171
0.462213
0.452669
-1.90495
-2.86816
-0.886794
-0.631128
0.00211708
0.0199348
0.0249178
0.330246
0.338892
0.339298
0.35337
0.730226
-0.717645
-0.840373
0.189868
0.188936
0.197293
0.197614
0.194806
0.192883
0.013292
0.0192974
-0.00535791
0.00420616
0.00322442
0.442249
0.438759
0.192459
0.188929
0.203343
0.225081
0.215182
-0.0358364
0.262611
0.287768
0.269709
0.452137
0.451046
0.457718
0.56384
0.526516
0.62725
0.650689
0.00799846
0.0020186
0.00953414
0.00722925
0.0110345
0.156684
0.150832
0.172435
0.163252
0.165346
-0.071904
-0.203729
0.0904583
0.110088
-0.592916
-0.678884
-0.78621
-0.788064
-0.906628
0.19909
0.36768
0.371653
-0.515117
-0.444857
-0.59287
-0.355984
-0.435331
0.168901
0.176148
0.170208
0.185587
0.180399
0.181838
0.194613
0.191757
0.1932
0.251963
0.346604
0.193238
0.192286
-0.592638
-0.424897
-0.55266
-0.0615245
-0.0415462
0.0779807
0.0902526
0.0599872
0.0577381
-0.0149493
0.00901614
-0.00475522
0.0236225
0.0234875
0.114259
0.106249
0.129204
0.136263
0.170723
0.171655
0.173975
0.173781
0.609128
0.631654
0.640071
0.613676
-3.88861
-6.95506
-0.299678
-0.156322
0.00177985
0.00298449
0.00110763
0.00227084
0.00403794
0.00157103
0.0346047
0.0334373
0.0282793
0.032317
0.315258
0.324157
0.7009
0.714623
0.672508
0.685382
0.177474
0.18041
0.18565
0.181037
0.0228829
0.0197826
0.0230493
0.40895
0.425354
0.426369
-0.0700419
-0.159492
0.0135262
0.039448
0.302618
0.287791
0.307108
0.333233
0.369846
0.657088
0.675023
0.675368
0.683456
0.728585
0.741564
0.707228
0.140786
0.148015
0.144349
0.177263
0.17381
0.175027
0.169816
0.172234
0.16952
-0.375611
-0.738868
0.168827
0.169522
0.146986
0.151952
0.275034
0.330308
0.349455
0.35604
0.363198
-0.287998
-0.362193
0.160574
0.149698
0.0640946
0.0942913
0.0779982
0.580025
0.541953
0.591868
0.564993
0.525791
0.551294
-0.780655
-2.03463
-1.28683
0.209628
0.0132155
0.104656
0.0520753
0.0364576
0.044471
0.624676
0.694027
0.39366
0.573204
0.532368
0.41373
0.446008
0.49938
0.422554
0.45749
0.493729
0.476633
0.170288
0.166331
0.139651
0.391483
0.455394
-0.176108
-0.219352
-0.291122
0.0947373
0.126167
0.11794
0.660388
0.524761
0.608686
0.188673
0.189292
0.0124648
0.0235464
0.193506
0.193783
0.00633861
0.00831911
0.0845178
-1.18318
-0.19344
0.181349
0.171881
0.188907
-0.291292
0.330114
0.0157917
0.0804463
0.0550707
0.180801
0.131438
0.0964227
0.00666912
0.0179487
0.0130274
-0.523351
0.186227
0.184314
0.188552
0.18949
0.190214
0.00841663
0.010414
0.00669219
0.0107695
0.0113805
0.00875776
0.155589
0.16859
-0.511555
0.188598
0.190761
0.19062
0.183623
0.189224
0.18696
0.0159433
0.0104489
0.00944539
-0.0786683
0.0334592
0.34416
0.467759
0.291226
0.062899
-0.183245
0.239504
0.309363
0.205449
0.374805
0.349936
0.381036
-0.131672
-0.287997
-0.124124
-0.179861
0.179199
0.177956
0.17095
0.168766
0.184003
0.182236
0.186642
0.18367
0.186403
0.187734
-0.188638
-0.139851
-0.360215
-0.420265
0.291198
0.422653
0.22222
0.231126
0.133686
0.0200545
0.0227208
0.0169923
0.0132551
0.0438075
0.0573444
0.0746397
0.0591498
0.0487956
0.0402488
0.0432979
0.0505892
0.0535059
0.175037
0.17327
0.17972
0.186399
0.138153
0.141793
0.111873
0.1287
0.118092
0.0615112
0.0944422
0.0746668
0.00793031
0.00779221
0.00581021
0.0216429
0.0264232
0.0131463
0.0107915
0.0133564
0.0107655
0.00997209
0.0165426
0.0188535
-0.518828
-0.617826
0.648087
0.561739
-0.540089
0.174911
0.181541
0.178099
0.183347
0.186653
0.187342
0.184955
0.181664
0.169365
0.171478
0.167687
0.167472
-0.443803
-0.591918
-0.413884
-0.472974
-0.203267
0.293664
0.04402
-0.0238029
-0.0237482
0.1908
0.565535
0.352877
0.406866
0.445919
-0.710991
-0.31862
-0.640225
-0.0550857
-0.231964
0.342763
0.398507
0.424702
0.366674
0.313915
-0.587178
0.173767
-0.380774
-0.344614
-0.145052
-0.244786
0.395484
0.334285
0.342162
0.366572
0.390883
0.339281
0.319824
0.320109
0.359569
0.36357
0.153073
-0.0420776
-0.100324
-0.129834
0.31943
0.198192
0.251632
0.172354
0.174042
0.176864
0.175706
0.15979
0.166225
0.160419
0.167398
0.169506
0.180162
0.180192
0.175517
0.178327
-0.0905771
-0.0590926
-0.337215
-0.520772
-0.435961
-0.513865
-0.441261
-0.418096
-0.268693
-0.359384
-0.0320423
-0.610499
-0.61179
-0.532335
-0.663799
-0.520566
-0.520156
0.0729185
0.143051
0.12317
0.146013
0.189201
0.18684
0.0356331
0.0363087
0.0181941
0.0254249
0.0747776
0.092664
0.101314
0.0368177
0.0377308
0.0246545
0.0233181
0.0250787
0.0166316
0.0204166
0.0397292
0.0206048
0.0224597
0.0260742
0.0291726
0.034809
0.0376889
0.168016
0.17025
0.169493
0.183188
0.193728
0.207723
0.176467
0.154797
0.148126
0.149639
0.127658
0.13484
0.13296
0.142454
0.160461
0.167547
0.165516
0.168039
0.154876
0.155744
0.142986
0.146855
0.12917
0.110824
0.0991118
0.0170858
0.0108804
0.0136296
0.0151329
0.0106262
0.0124692
0.0375967
0.0294359
0.0340562
0.0297497
0.0337682
0.0170871
0.0165531
-0.506197
-0.509949
-0.540236
-0.569732
-0.644028
0.535245
0.620347
0.464494
0.265272
0.204959
0.469296
0.625695
0.351359
0.384688
0.482846
0.160078
0.391075
0.180129
0.17975
0.177528
0.177342
0.178086
-0.35041
-0.250063
-0.243009
-0.185661
-0.0683519
0.0506968
-0.05416
-0.126037
0.000281015
0.00265498
0.287299
0.304417
0.248939
0.275063
0.273738
0.102526
0.178009
0.226931
0.188765
0.227613
0.246017
0.212838
0.238987
0.191951
0.150831
0.152682
0.104691
0.108094
0.0891239
0.0779196
0.170597
0.150303
0.159604
0.151854
0.172121
0.200943
0.191932
0.21667
0.23228
0.16023
0.124032
0.1298
0.160453
0.121193
0.133162
0.145345
-0.157028
-0.223214
-0.191176
-0.453919
-0.353307
-0.429777
-0.459899
-0.36494
-0.0759649
-0.809566
-0.857089
-1.41558
0.114786
0.619311
0.354694
0.286452
0.386472
0.356619
0.353488
0.39997
0.404294
0.311144
0.328058
0.331362
0.283366
0.304608
0.337525
0.334615
0.165688
0.0403758
0.0277998
0.00154423
-0.119922
-0.0854702
0.123471
0.0385936
-0.0373246
-0.0192553
0.142725
0.042836
0.0988253
0.130773
0.050602
0.02387
0.206214
0.279906
0.270433
0.241463
0.166426
0.176475
0.204765
0.23533
0.26091
0.302851
0.169211
0.172047
0.174605
0.173117
0.167844
0.171052
0.170899
0.17354
0.174117
0.177941
0.17657
0.00944286
0.00794488
-0.0246128
-0.00611541
-0.122384
-0.153337
-0.232285
-0.215591
0.012828
-0.00966116
-0.0750067
-0.0347462
-0.0167957
-0.00699104
0.0335836
0.0386822
-0.0863765
-0.131628
-0.249547
0.0363976
0.0852127
-0.0756617
-0.230207
-0.123331
-0.0704837
0.0431275
0.0645042
0.0579634
0.0633664
0.0607154
0.031079
0.0269693
0.0258924
0.0318363
0.0323916
0.0233097
0.0207227
0.023125
0.0237969
0.0233369
0.0218697
0.155365
0.150017
0.15201
0.146884
0.14599
0.157472
0.160818
0.162377
0.166772
0.16832
0.160232
0.164664
0.167721
0.0256828
0.0201175
0.0222685
0.0224035
0.0213937
0.0192204
0.019485
-0.0931972
-0.439616
-0.436927
-0.420621
-0.491303
-0.451168
0.138174
0.083325
0.13827
0.275728
0.183016
0.0846425
0.150139
0.255063
-0.000100445
0.140838
0.00475534
0.483969
0.348548
0.492328
0.180123
-0.132275
0.0200151
0.0712831
-0.13572
-0.0530178
-0.0285879
-0.131032
-0.1012
-0.081939
0.0173152
-0.091803
-0.123386
-0.369112
-0.1875
-0.042042
-0.0559469
0.0640297
0.120223
-0.10389
-0.19501
-0.217663
0.276081
0.297701
0.316432
0.286214
0.308109
0.236188
0.225969
0.244314
0.25478
0.248705
-1.14199
-0.861813
-1.77251
-1.07694
-0.632259
0.147333
0.106798
0.377512
0.281619
0.35204
0.337013
0.314826
0.279688
0.283174
0.318286
0.0388756
0.140245
0.119489
0.120902
0.0191463
-0.0318448
0.246343
0.23734
0.282045
0.303719
0.270785
0.306821
0.163943
0.163752
0.167179
0.163902
0.160723
0.162406
0.0190932
0.0282317
-0.05512
-0.0948694
-0.101945
-0.0412011
0.0304002
0.028224
0.0240826
0.0239351
0.0282666
0.0311745
-0.149649
-0.207278
-0.355133
-0.232529
-0.352912
-0.432736
-0.444057
-0.379362
-0.254725
-0.260808
0.0306899
0.276175
0.139866
0.215116
0.022124
0.0410376
0.143239
0.123379
0.154399
0.0418613
0.119189
-0.0952521
-0.620683
-0.505959
0.349978
0.42745
0.214253
0.0817143
-0.208776
-0.0744084
0.196662
0.131797
0.173953
0.242862
0.239858
-0.352531
-0.314218
-0.0161783
0.180802
-0.144545
-0.198078
-0.202928
-0.0185941
-0.0678041
)
;

boundaryField
{
    wall-4
    {
        type            zeroGradient;
    }
    velocity-inlet-5
    {
        type            zeroGradient;
    }
    velocity-inlet-6
    {
        type            zeroGradient;
    }
    pressure-outlet-7
    {
        type            fixedValue;
        value           uniform 0;
    }
    wall-8
    {
        type            zeroGradient;
    }
    frontAndBackPlanes
    {
        type            empty;
    }
}


// ************************************************************************* //
