/*--------------------------------*- C++ -*----------------------------------*\
| =========                 |                                                 |
| \\      /  F ield         | OpenFOAM: The Open Source CFD Toolbox           |
|  \\    /   O peration     | Version:  4.0                                   |
|   \\  /    A nd           | Web:      www.OpenFOAM.org                      |
|    \\/     M anipulation  |                                                 |
\*---------------------------------------------------------------------------*/
FoamFile
{
    version     2.0;
    format      ascii;
    class       surfaceScalarField;
    location    "15";
    object      phi;
}
// * * * * * * * * * * * * * * * * * * * * * * * * * * * * * * * * * * * * * //

dimensions      [0 3 -1 0 0 0 0];

internalField   nonuniform List<scalar> 
1300
(
3.75095
5.62643
-6.16207
3.75095
-5.98664
5.62643
-4.55636
4.55636
-1.41457
1.41457
1.87679
1.87416
-3.80422
3.80422
-4.66334
4.66334
-2.77865
2.77865
-5.2464
5.2464
-5.06855
5.06855
4.67347
-4.67347
-4.87798
4.87798
-1.84448
1.84448
-3.73996
3.73996
3.17087
-3.17087
-4.96074
4.96074
-0.507082
0.507082
-0.553037
4.30399
3.19792
3.19792
-2.50107
2.50107
-4.8518
4.8518
6.21781
-6.21781
9.3574
-9.3574
-3.19534
-3.40218
1.33054
-8.13554
-4.65611
-4.65611
-8.44022
8.44022
-2.81379
2.81264
2.90898
-2.90898
-1.80295
1.80295
-4.52381
-0.0325481
-4.52381
4.51281
0.0435526
4.51281
-1.53111
0.11653
-1.53111
4.12406
-4.12406
1.24747
0.1671
1.24747
3.06701
-3.06701
-1.87713
3.75392
1.87382
-1.87188
6.17587
-1.87907
3.75323
-4.99026
4.99026
-3.50978
-0.294444
-3.50978
4.14023
-0.336008
4.14023
-5.25161
5.25161
-4.60922
-0.0541118
-4.60922
4.70935
-0.0460098
4.70935
2.99965
-2.99965
-2.809
0.0303482
-2.809
2.7246
0.054049
2.7246
0.353726
5.2727
-5.98016
8.7928
-5.2727
0.0263037
5.20831
0.0380921
5.20831
-5.1063
0.0377458
-5.1063
5.0097
0.0588525
5.0097
4.75114
-0.0776677
4.75114
-4.79681
0.123345
-4.79681
-3.32112
-3.40511
-4.97812
0.10014
-4.97812
-1.89546
0.0509804
-1.89546
1.7935
0.0509844
1.7935
-3.46252
3.46252
-4.13756
0.397605
-4.13756
3.12432
0.0465578
3.12432
1.86917
1.88178
5.62013
-5.62013
2.44925
-4.9012
-0.0595329
-4.9012
-5.03043
-4.32697
5.03043
-0.069696
-0.815091
0.308009
-0.815091
3.16013
0.037787
3.16013
2.65454
0.0700641
-2.65454
0.153467
3.40116
-3.40116
1.85687
0.644198
1.85687
-5.57117
5.57117
4.94906
0.0606368
-4.94906
0.0972647
6.15737
0.060432
6.15737
-6.19987
-0.0179343
-6.19987
3.37135
-6.77353
-3.4077
4.77279
0.105196
-4.77279
0.11668
2.8977
0.0112816
2.8977
-2.88318
2.88318
-2.96297
0.0539877
-2.96297
-2.21768
0.414727
-2.21768
1.47742
0.325529
1.47742
-4.39836
-0.125446
-4.39836
-4.42695
0.289394
4.42695
0.0858513
0.916256
-0.916256
-1.64315
0.112049
-1.64315
-4.25826
-0.140106
4.25826
-0.134203
-3.9774
-0.146655
-3.9774
-3.02096
0.0579884
3.02096
0.0460511
3.11304
0.0470851
-3.11304
0.0460355
-1.87109
3.75287
-1.87986
3.75369
-4.7853
-0.204964
-4.7853
5.14416
-0.153904
5.14416
3.48212
0.257837
-3.48212
-0.0276565
4.38355
-0.243323
4.38355
-5.29956
0.0479492
-5.29956
5.19263
0.0589812
5.19263
4.5206
-0.137052
-4.5206
-0.0886227
4.76211
-0.0527637
4.76211
3.0441
-0.0444435
3.0441
-2.95936
-0.0402906
-2.95936
2.82419
-2.82419
2.82698
-0.00278706
-2.82698
0.017976
-11.1326
11.1147
-0.0350517
-11.0975
5.17326
5.17326
4.16285
0.588284
4.16285
-5.01007
0.21326
-5.01007
3.32189
-6.72959
3.3993
-6.72043
3.39506
-11.5306
3.34057
-6.74568
5.12625
-5.12625
5.06535
0.0608978
-5.06535
0.0872257
-1.90127
0.00580875
-1.90127
-2.87485
-0.587666
-2.87485
3.94985
-0.487331
3.94985
-3.02164
3.02164
-3.07822
0.056579
3.07822
0.0460981
4.82899
-0.066876
-4.82899
-0.0722191
1.04974
0.197739
-1.04974
0.234645
3.58339
-0.182225
3.58339
-3.22835
-0.172815
-3.22835
-1.87057
-0.0307035
1.87057
-0.0136947
-5.81897
0.247793
-5.81897
-11.1909
0.0933479
-11.1528
-6.10652
-6.10652
2.3337
11.1265
-2.92317
-0.0361958
2.92317
-0.0254669
2.95203
0.069612
-2.95203
0.0688466
-2.83858
0.0143935
2.83858
0.0445982
-2.62419
0.406508
-2.62419
-1.05041
1.05041
-1.23234
0.181925
1.23234
0.245085
1.137
-0.220739
1.137
1.72434
0.0691566
-1.72434
0.0811874
-3.8596
-0.117802
-3.8596
5.25698
-0.112814
5.25698
-3.11645
-0.111898
3.11645
-0.072355
-0.0332176
11.1479
-5.14004
0.0337414
5.14004
-11.2083
11.242
-3.26301
0.638823
3.26301
0.899843
5.29695
0.274223
-5.29695
0.286877
5.15923
0.0333998
-5.15923
0.0329847
-2.37921
-0.495642
-2.37921
-4.45003
-0.335269
4.45003
-0.500178
-11.474
-0.20304
11.6771
-11.4152
6.02201
0.135366
-6.02201
11.3774
-0.904025
-0.0122308
0.904025
0.146388
1.43554
-0.298543
1.43554
3.75106
-0.167666
-3.75106
-0.108543
-5.30647
0.00691241
5.30647
-0.0494963
-1.85587
-0.523341
1.85587
-0.420331
-4.26672
4.30451
1.90915
-3.34527
-3.42827
-7.67224
1.85084
1.90203
4.30009
-7.12495
-4.40566
-7.00827
7.27393
-6.98705
-9.30376
9.22609
7.413
-7.55965
-5.78362
5.82972
6.48493
-6.43888
1.87866
1.87526
7.42205
-7.71649
-13.7608
13.5558
9.92138
-9.97549
11.3324
-11.2845
-12.7054
12.7388
-5.74933
5.77968
-6.61928
6.57898
-6.79104
6.71869
-3.284
-3.43642
9.19953
-9.09939
11.723
-11.7825
-7.18346
7.58106
3.38196
0.922553
3.42904
-1.88143
3.76008
-1.87181
3.78095
3.4067
-6.6907
3.32289
-6.75116
6.08177
5.64124
-6.01208
-1.66016
-5.85648
5.86776
-5.84075
5.88535
8.95715
-8.9897
-1.8853
3.76056
-1.86839
3.77042
-3.42533
-2.35829
3.37877
0.921323
5.63455
3.56498
-5.73974
-1.26853
-7.66329
7.49562
-7.95173
7.77891
-0.45592
5.82584
-5.36992
4.39588
-1.54822
7.37406
5.72571
5.93897
5.86754
-5.59331
1.11951
-6.48943
-6.39217
-2.67938
2.79142
2.65937
-2.49227
5.84841
1.56459
5.71421
-5.46006
-2.09959
-5.57786
3.82149
2.00824
3.87806
4.04757
2.43736
4.10556
3.02997
-3.03597
0.00600127
-3.05804
6.08801
0.724591
-5.41633
-4.49501
5.55596
1.86609
5.21995
-4.61315
-3.10334
-4.64081
-8.89807
-4.8627
-9.23334
8.12244
5.43338
7.96853
-8.82644
8.77695
6.66407
3.25731
6.61806
-6.36452
-3.61097
-6.45314
10.5794
-2.33757
-8.24185
-7.241
-5.46439
7.18202
4.15043
7.7021
5.03669
7.73508
3.46209
7.11733
-7.61252
2.14812
-3.84846
-1.90087
-3.83048
3.74222
2.03746
3.79626
-4.12794
-2.49133
-4.16414
-4.19226
-2.59878
4.2367
2.34229
-4.2999
-3.65183
4.4118
2.30689
3.10995
-7.51561
3.63572
-7.07214
-6.42082
-2.67857
-6.33359
4.16478
2.60928
-6.77406
-2.52593
10.9372
-5.29601
9.27709
-7.24909
-4.53345
-7.32131
-6.43048
-0.752975
-6.14109
-8.85569
8.36005
-9.13302
8.64568
14.1735
-7.19654
-6.97692
-3.96931
-2.46956
3.92328
-0.494236
-3.71049
3.71649
0.0495982
3.83055
4.75311
4.25887
-3.89545
-1.9453
-3.82661
3.85912
2.02623
3.87351
6.68088
2.27627
6.72444
-6.44925
-2.54045
-6.5747
9.05924
-8.64451
2.92591
-2.95662
5.2069
2.57201
-5.02468
-2.63861
5.99512
-3.02992
-2.9652
-12.2385
10.6079
1.63059
-4.86444
-0.468564
0.0385177
-5.51059
-3.79317
5.38724
0.551731
11.1596
7.36647
-5.51282
5.76061
6.16424
6.22488
-0.167295
5.79354
-5.15472
5.18041
-2.17828
-3.00212
5.27322
-5.41332
-1.30148
-5.22256
3.92108
0.300885
1.86936
-1.56135
-2.08588
-0.593495
-2.00469
1.60587
1.0535
1.80361
0.968542
1.82288
-2.97995
0.552857
2.42709
-2.01141
-1.93941
-3.57812
-0.918912
4.49703
5.50911
1.98651
-5.40056
-0.1773
2.73316
-2.68217
-0.839004
-2.73912
1.97933
-2.81834
-3.50938
-1.7541
5.26348
-3.38266
-0.443945
3.31305
0.565015
-3.78583
-2.07065
3.73184
0.373713
-3.14219
6.25759
-3.1154
-5.08749
2.5334
3.5546
4.54164
-4.78957
2.43697
2.3526
-1.23497
5.17093
0.0490278
4.9276
-6.25759
3.15425
4.60427
2.9768
-4.8621
0.221294
-6.0363
11.0744
-7.87929
-3.19515
7.371
3.70344
7.82923
6.34423
-6.09826
13.9275
0.196785
-8.07607
5.83951
-2.86272
5.46235
-8.32507
-11.8066
3.73051
-8.68614
9.20883
-0.522683
-2.43831
-6.38813
11.1245
-1.46759
-9.65687
6.50094
-5.70151
-5.06364
10.7652
-8.03908
8.67461
-3.10294
-5.57167
-7.26551
-4.01898
7.2586
1.51835
-9.94924
12.0974
-2.83191
5.83392
0.784142
5.78116
4.52088
-6.05454
1.53366
3.5182
-6.62114
3.91974
-9.97427
-4.97011
9.68202
-4.71191
-7.64867
-6.86723
-0.781445
2.02275
10.0746
-7.05945
5.40484
1.65461
3.35043
0.523079
-3.34764
-0.482837
0.35113
4.44656
-4.79769
4.14739
4.21746
3.38183
1.06473
3.8119
2.05586
-3.78643
-0.377711
-4.05151
1.45272
-1.70922
-3.56434
5.01707
-3.98926
0.424914
-2.66196
-3.51022
6.17218
-4.56283
3.0965
3.16108
5.12274
-4.8781
1.36788
-2.41313
-2.46496
2.62138
-4.33061
1.92392
3.09315
4.2308
0.578973
4.93619
4.74583
-7.54547
0.473327
8.31081
-7.04228
1.73045
6.00463
-7.13529
0.268061
-6.06553
1.08422
-6.38023
-5.68984
5.57034
-6.32332
-2.75473
5.98607
0.738365
-6.07192
-0.0691659
-5.89736
-2.95833
-6.4207
-3.03799
-6.09502
-9.13625
-1.67736
-7.45889
6.68269
-6.55754
-2.6758
7.05772
1.58797
-7.2141
7.20187
-7.29317
6.99463
0.0950264
3.62146
4.3539
1.88433
-2.38649
4.27082
-4.92974
7.20601
-8.38117
3.45144
3.99469
-6.53514
-4.38648
4.98498
4.07426
5.31051
8.83939
-10.7229
1.88348
-10.9026
12.1378
-1.23524
-16.6037
5.70113
-7.7643
2.68661
0.239298
2.69242
0.666603
2.39672
-3.06333
-2.29001
-2.30371
-2.25651
-3.27544
5.53195
1.12423
-3.33207
2.20784
-3.40639
4.53062
-0.114998
-3.21707
5.18474
-2.78802
5.42404
-3.52139
1.90265
3.2071
5.47358
-2.26648
4.17836
-1.60635
1.73569
-4.00217
-1.53975
-2.98479
5.02225
-3.18739
3.61231
-0.224558
3.83686
-3.99897
0.969048
-0.617139
3.60032
3.75379
4.09427
-3.02953
2.87311
-4.47945
-1.12907
-3.90048
-0.807329
-0.311517
-3.70185
4.01337
6.11491
-6.42643
-5.305
9.62819
-4.32318
7.74947
-5.41451
-2.33496
-4.25618
-4.38833
3.84968
1.94386
9.69333
0.223637
-5.63815
-4.93108
-4.03124
3.19964
1.98077
-2.07742
3.708
2.0389
-0.169535
0.632233
1.17138
1.92194
-1.28971
0.15533
1.76661
-1.40602
2.0291
0.70406
-2.09826
0.093562
-1.40346
3.38279
1.02364
-2.07713
0.787428
1.14709
-3.32538
4.67641
-2.30318
-2.37323
5.8235
1.18997
-3.49315
4.03259
-3.73171
2.26695
-3.18586
-1.2262
-4.9579
-3.39332
-2.43142
4.63926
-3.10053
5.08705
1.12988
-4.90975
6.03962
-3.44727
1.69317
-3.04723
3.75129
-1.08335
-1.96388
2.66499
2.59849
-2.77977
0.0406556
-0.114783
2.26397
-2.37876
-0.554364
-2.56577
-4.54692
4.92064
-2.16126
4.59824
2.10956
-1.92782
6.52606
1.81455
-3.74237
-3.27294
-3.71688
-1.38977
3.15186
-1.22453
-5.22862
-6.7962
5.36567
-0.438066
-7.3316
9.88664
-2.55504
-5.46551
2.31126
5.05974
-8.00314
1.382
-4.0834
5.80324
5.85227
5.4142
-10.9291
1.27223
-5.49572
3.0166
-8.51232
6.72003
-4.75092
8.48144
-10.7645
8.08873
-9.17657
5.28629
-3.22603
5.60335
-4.0697
2.63849
-6.65747
-5.13913
6.97351
-3.7162
7.75765
-4.21704
11.9747
-7.04895
7.01352
4.96117
-1.46599
-5.85532
-6.87248
5.40649
0.141045
5.9222
4.95237
-2.89651
4.57466
2.24728
-4.66042
-2.08333
-6.52523
1.86481
-3.36414
-1.8947
3.75951
3.22804
3.75112
1.29454
-3.26828
6.80727
-7.58872
-2.09536
-3.59448
6.79354
-1.38705
4.12014
-7.71462
-2.26008
4.88524
-0.286332
-4.5989
2.31131
-5.06604
1.08032
-6.14636
5.243
-5.31216
2.129
-9.89329
-5.0851
-4.93871
-2.22027
-5.0729
-7.60935
5.38908
-1.90823
5.29364
-8.63967
8.35333
-3.49813
8.88721
-5.30154
-1.11916
5.72187
1.27276
10.16
0.208168
-4.59465
-1.81443
3.89516
-2.08072
1.38521
-3.49369
0.40147
2.5156
3.3079
-6.43667
-0.0984665
-4.69312
-3.88896
7.96322
5.73923
11.8541
1.13127
9.2038
-1.24059
10.3351
4.06993
4.31501
-2.88273
4.76621
1.13065
4.58208
-0.854741
2.75739
1.83768
1.88866
0.793512
2.29221
1.46158
3.26126
0.197931
-2.10578
4.64229
-8.67353
-0.995851
-8.08525
1.14084
5.83388
-4.69304
3.10886
-1.1281
1.02814
0.288146
-1.85174
1.56359
-2.71398
-2.02128
-0.254666
-1.52287
2.3103
1.85992
-2.05563
-0.658348
0.269201
-3.66252
2.91666
-2.87601
-0.277513
5.76211
-2.72479
0.346039
-1.03163
-2.21973
-2.81323
2.71967
6.25778
0.268276
3.14238
5.18891
3.11827
0.221759
6.39005
-6.91274
-3.58422
-5.64051
1.07952
6.13926
2.1405
7.93411
7.10167
5.71462
-2
-9.58872
6.7917
-2.02549
5.55646
-0.957555
-5.1888
4.85903
2.34698
-5.59739
0.285232
-4.90357
-6.92906
-0.294132
8.64747
-9.86584
8.74668
5.78835
1.67054
-4.29258
-0.646131
4.11066
0.204353
10.5394
-1.18245
-6.81693
7.99938
-4.65143
3.65558
0.920978
2.78703
2.48457
1.35648
-5.46046
-10.1535
-1.74908
-1.5763
-4.12231
0.374729
-2.23465
6.29234
-2.63675
3.95738
5.36263
6.39076
-2.18311
-4.24331
6.5063
-2.54892
3.84184
)
;

boundaryField
{
    wall-4
    {
        type            calculated;
        value           uniform 0;
    }
    velocity-inlet-5
    {
        type            calculated;
        value           uniform -3.75095;
    }
    velocity-inlet-6
    {
        type            calculated;
        value           uniform -5.62643;
    }
    pressure-outlet-7
    {
        type            calculated;
        value           nonuniform List<scalar> 8(6.16207 5.98664 6.59752 6.805 6.72623 6.77905 6.7212 6.73563);
    }
    wall-8
    {
        type            calculated;
        value           uniform 0;
    }
    frontAndBackPlanes
    {
        type            empty;
        value           nonuniform 0();
    }
}


// ************************************************************************* //
