/*--------------------------------*- C++ -*----------------------------------*\
| =========                 |                                                 |
| \\      /  F ield         | OpenFOAM: The Open Source CFD Toolbox           |
|  \\    /   O peration     | Version:  4.0                                   |
|   \\  /    A nd           | Web:      www.OpenFOAM.org                      |
|    \\/     M anipulation  |                                                 |
\*---------------------------------------------------------------------------*/
FoamFile
{
    version     2.0;
    format      ascii;
    class       volVectorField;
    location    "15";
    object      U;
}
// * * * * * * * * * * * * * * * * * * * * * * * * * * * * * * * * * * * * * //

dimensions      [0 1 -1 0 0 0 0];

internalField   nonuniform List<vector> 
918
(
(0.985126 -0.000654904 0)
(0.00475197 2.96627 0)
(-0.00411837 1.63438 0)
(0.979836 0.00237662 0)
(-0.00104803 1.59396 1.58435e-21)
(-0.00704269 2.9489 -7.8046e-19)
(0.846216 1.21073 3.09738e-19)
(0.481588 0.233224 -3.46026e-21)
(0.999921 -0.00033939 0)
(-0.0240489 1.12381 0)
(0.00037991 1.35168 0)
(0.815039 -0.00654399 0)
(0.011546 2.93013 0)
(0.00154764 2.79511 0)
(-0.0189109 3.16214 4.8883e-19)
(-0.00507709 1.50938 -6.02313e-21)
(0.581663 0.108184 2.141e-19)
(0.15943 1.17627 2.68047e-19)
(0.962781 0.00384422 0)
(-0.00156555 1.4598 0)
(0.167815 0.268354 -1.84788e-19)
(1.00164 -0.00548337 0)
(1.00085 -0.00997309 0)
(0.976062 -0.00637421 0)
(0.730045 -0.022865 0)
(0.0198516 2.62795 0)
(-0.0152028 2.91035 2.53946e-19)
(-0.0128339 1.65995 0)
(-0.0126701 1.76254 0)
(-0.0118321 1.65656 0)
(-0.000530796 1.81345 0)
(-0.000475198 1.61397 -1.22917e-21)
(-0.00527645 1.51789 0)
(-0.0204546 2.98749 -2.71667e-23)
(-0.0169939 3.0054 6.19975e-19)
(0.00201409 3.00016 0)
(0.860784 -0.00774919 0)
(0.410843 0.951091 -1.25065e-20)
(0.834975 1.22486 -4.30097e-19)
(0.984794 1.0749 4.04736e-19)
(0.698661 1.31652 -7.24436e-20)
(0.702949 1.28672 4.12741e-19)
(0.509801 0.302293 3.37409e-21)
(0.502037 0.208328 0)
(1.18962 0.598767 0)
(0.476273 0.31879 1.58206e-20)
(0.437856 0.226575 -1.6427e-20)
(0.919874 -0.00703242 0)
(1.00041 3.47854e-05 0)
(0.999941 0.000315263 0)
(1.00348 -0.00769672 0)
(1.00089 -0.000999868 0)
(1.00019 5.09977e-05 0)
(0.0438477 1.54142 -1.87009e-19)
(-0.0348715 1.17219 0)
(-0.010177 1.01555 0)
(-0.0473838 1.27865 0)
(-0.0268008 1.21282 0)
(-0.00604771 1.57271 0)
(-0.00413936 1.50464 0)
(-0.00401337 1.34402 0)
(-0.00791244 1.53038 0)
(-0.0042701 1.36208 0)
(0.892352 -0.000349845 0)
(0.895628 0.00827562 0)
(0.827257 0.00024673 0)
(0.888554 0.0127593 0)
(0.79972 -0.00718631 0)
(0.0153598 3.00064 2.79274e-19)
(0.0116864 3.00832 0)
(0.00648298 3.00263 0)
(0.0141637 2.99718 3.07091e-24)
(0.00840361 2.95849 -4.21978e-19)
(0.0152333 2.98191 0)
(0.0112536 2.90363 0)
(0.0255384 2.9303 5.2727e-25)
(0.00458933 2.82548 0)
(0.0323721 2.91529 0)
(-0.00644046 2.74395 0)
(0.305348 3.55721 0)
(-0.146296 3.63407 0)
(0.136854 3.25463 -4.51219e-19)
(-0.0103211 2.99256 0)
(-0.0115667 1.79298 0)
(-0.00414326 1.64083 5.93994e-21)
(-0.00572286 1.52431 -9.71432e-21)
(0.645255 0.169621 -7.37467e-20)
(0.604186 0.0766286 -7.16742e-20)
(0.613268 0.198165 -2.20676e-19)
(0.562935 0.134648 -1.47984e-19)
(0.212397 0.998062 0)
(0.245416 1.28469 -2.63482e-19)
(0.317218 1.28105 4.34483e-19)
(0.987718 0.00827905 0)
(0.942054 0.00569731 0)
(1.00033 0.000407114 0)
(1.00325 0.00950109 0)
(1.00274 0.00775743 -3.96382e-19)
(0.991877 0.00999696 3.02498e-19)
(-0.0123475 1.57805 0)
(-0.00646766 1.44642 0)
(-0.0201436 1.66918 0)
(-0.0161614 1.61027 0)
(-0.00036833 1.48449 0)
(0.24616 0.282743 5.70008e-20)
(0.286542 0.26685 0)
(0.993372 -0.00827275 0)
(0.954579 -0.00626968 0)
(0.862279 0.0174553 0)
(0.831812 0.0318707 0)
(0.779969 -0.0156102 0)
(1.01604 -0.00397103 0)
(0.776151 0.0464897 0)
(0.647876 -0.00909159 2.84225e-19)
(-0.0349538 2.86616 1.17163e-19)
(0.0440762 2.90712 0)
(0.0581646 2.88255 0)
(-0.00647699 2.69565 0)
(-0.0133634 2.98524 2.31065e-19)
(-0.0183824 2.89554 0)
(-0.0158297 2.98808 -7.37229e-19)
(-0.0132447 2.92535 2.56184e-19)
(-0.0101049 1.8132 0)
(-0.00792544 1.80757 0)
(-0.000499506 1.64169 -1.13526e-22)
(-0.00290226 1.61435 0)
(-0.00615696 1.50962 0)
(0.92686 -0.00278226 0)
(0.854911 -0.00254587 0)
(0.849547 0.00849107 0)
(0.938377 -0.0061086 0)
(0.878719 -0.00779624 0)
(0.52225 1.14887 1.14493e-20)
(0.577076 1.19673 0)
(0.369196 0.887444 1.74119e-21)
(0.310723 0.745792 0)
(0.949863 1.10268 -1.15874e-19)
(1.05967 0.911039 2.39988e-19)
(0.418527 1.36139 0)
(0.54614 1.37542 0)
(0.524776 1.31798 0)
(0.100783 0.146932 -4.4302e-20)
(0.543895 0.278451 0)
(0.528986 0.183269 4.24751e-20)
(1.03823 0.958721 0)
(1.11483 0.810251 0)
(1.13766 0.755705 -2.12651e-19)
(1.16629 0.650028 0)
(1.21421 0.430292 2.6091e-20)
(0.953555 -0.0085233 0)
(0.962629 -0.0105925 0)
(0.901033 -0.00890753 0)
(0.984269 -0.00921114 0)
(0.975202 -0.00910787 0)
(0.937534 -0.00628596 0)
(1.00011 0.00202926 0)
(1.00086 0.00147436 0)
(0.999847 0.000861887 0)
(0.0671921 1.74224 1.01322e-19)
(0.0691013 1.50295 0)
(0.0385016 1.75292 1.62997e-19)
(0.0318841 1.57758 -1.39575e-19)
(0.0795915 1.16231 -2.21651e-19)
(-0.016756 1.10695 0)
(0.0847359 1.04189 0)
(-0.031523 1.38079 0)
(-0.00983736 1.28043 0)
(-0.0100458 1.70327 -4.31678e-22)
(-0.00404588 1.59823 0)
(-0.00716631 1.68762 -2.05277e-20)
(-0.00461955 1.55961 3.95932e-20)
(-0.0196875 1.44451 0)
(-0.0118083 1.48422 0)
(-0.00595954 1.31681 0)
(-0.0112919 1.54552 0)
(-0.00742878 1.38024 0)
(0.963439 0.0130664 0)
(0.907691 0.00250166 0)
(0.945843 0.00875453 0)
(0.879769 0.00103732 0)
(0.825807 -0.0045247 0)
(0.913088 0.000229946 0)
(0.908021 0.00514795 0)
(0.827901 -0.0040578 0)
(0.004202 3.06441 -2.29057e-21)
(0.0166977 3.05786 0)
(0.0153639 2.96903 0)
(0.00877956 2.87626 0)
(0.964266 3.99489 0)
(1.30926 3.25519 4.91428e-19)
(0.0698847 3.08359 0)
(-0.0247717 2.9129 0)
(-0.0119112 1.79301 0)
(-0.0126474 1.79121 0)
(-0.0115907 1.79189 0)
(-0.00663951 1.80259 1.55921e-21)
(-0.0117027 1.79745 0)
(-0.00721463 1.79589 0)
(-0.000312018 1.53786 5.30712e-22)
(-0.00308293 1.66757 1.18768e-20)
(-0.00490868 1.65674 9.91982e-21)
(-0.00353414 1.52906 0)
(0.677248 0.126179 1.08044e-19)
(0.623983 0.0380766 -1.04931e-19)
(0.169906 1.42145 0)
(0.245664 0.717463 -9.03605e-20)
(0.133325 1.51198 -3.04136e-19)
(0.173036 1.18827 3.02723e-19)
(0.89815 0.0095983 0)
(0.968066 0.0124842 0)
(0.975053 0.0110173 0)
(0.92355 0.00740088 0)
(-0.0143408 1.55767 0)
(-0.0151945 1.56868 0)
(-0.00869974 1.41027 0)
(0.432912 0.335738 1.44964e-19)
(0.363011 0.316134 -1.76111e-19)
(0.373238 0.246539 0)
(1.13465 0.082439 -2.12968e-21)
(1.11539 0.0363478 0)
(1.05048 0.0338268 0)
(0.964416 0.00406947 0)
(0.690772 0.0868749 0)
(0.718241 0.0652017 -4.57583e-19)
(0.630631 0.0200586 1.74924e-19)
(0.00977551 2.98263 1.55047e-19)
(-0.0321456 2.86889 1.99707e-20)
(0.00209955 3.04965 -4.97139e-21)
(0.0206477 3.04334 1.85662e-19)
(-0.0153893 2.9963 8.53974e-21)
(-0.0128486 2.94946 -3.46907e-23)
(-0.0175595 3.01153 -1.61824e-19)
(0.0141855 3.02316 1.16398e-19)
(0.00665179 3.03665 -1.85296e-19)
(0.940427 0.00903252 0)
(0.933833 0.00563626 0)
(0.863391 0.00150163 0)
(0.954371 0.0133001 0)
(0.936731 0.0135146 0)
(0.871783 0.00865898 0)
(0.914805 0.0026613 0)
(0.917462 0.00926622 0)
(0.831412 0.001042 0)
(0.748493 1.42904 1.52615e-19)
(0.795931 1.52431 0)
(0.238572 0.404828 9.56018e-21)
(0.19439 0.573871 7.36334e-20)
(0.277657 0.699289 -4.44873e-20)
(0.236435 0.582456 7.96926e-20)
(0.267901 0.664232 2.51471e-19)
(0.112971 0.165919 7.14098e-20)
(0.591415 0.22842 1.59724e-19)
(0.564986 0.249399 3.89679e-20)
(0.542104 0.163923 8.08629e-20)
(1.20316 0.484233 1.25221e-19)
(1.21499 0.277579 1.32147e-19)
(0.0209313 1.75495 6.57671e-20)
(0.0221722 1.60359 0)
(1.00467 0.0249123 0)
(0.975001 0.0151734 0)
(0.931656 -0.00138658 0)
(0.0107859 3.07457 0)
(0.0205606 2.94391 3.1183e-19)
(0.0172343 2.95629 0)
(0.00641133 2.85088 -3.10803e-19)
(0.00538856 3.09097 7.14761e-20)
(0.00615832 3.08224 0)
(0.884469 1.83148 -1.04484e-19)
(1.27319 2.38664 2.34904e-19)
(0.865982 1.93697 -5.91824e-19)
(0.021151 2.98515 -1.09075e-19)
(0.0372331 3.00889 0)
(-0.0308494 2.88397 0)
(-0.000666502 1.6598 -2.23467e-21)
(-0.000291746 1.66871 -2.66885e-20)
(0.00160358 1.54557 -2.72046e-21)
(0.256863 1.32093 2.63681e-19)
(0.216208 0.477266 -1.79154e-19)
(0.0698303 1.69492 1.93709e-19)
(0.0904351 1.6146 -2.47466e-19)
(0.0854571 1.39115 3.90523e-20)
(0.00117162 3.11834 -4.13786e-19)
(0.0168877 3.11738 4.65157e-19)
(-0.00916318 2.98119 1.97049e-19)
(-0.00311276 2.97837 -1.71418e-19)
(-0.0213867 2.88297 -2.00796e-19)
(0.00786065 3.09923 -5.22834e-19)
(0.00172998 3.10584 5.23067e-19)
(0.20903 0.580778 0)
(0.138815 0.559038 -1.45393e-19)
(0.171316 0.237717 6.34321e-20)
(0.317989 0.794875 2.23966e-19)
(0.151247 0.207949 -3.43117e-19)
(1.21232 0.176863 -2.44934e-20)
(1.21381 0.324106 0)
(1.19769 0.128343 5.26739e-20)
(-0.00170285 1.73809 -5.43564e-22)
(0.00840638 1.75247 0)
(0.00457961 1.60096 0)
(0.332961 1.174 -9.2583e-20)
(0.356379 0.991049 -1.96788e-19)
(0.151331 0.304168 3.29647e-19)
(1.00538 -0.011197 0)
(1.0076 -0.00770701 7.24846e-20)
(-0.0101807 1.80156 0)
(-0.0189058 1.8097 0)
(1.00209 0.00348268 8.11144e-22)
(1.00364 0.00999514 1.48394e-19)
(-0.00624316 1.80584 -2.08259e-21)
(-0.00477476 1.80476 0)
(0.0389373 3.18405 3.18408e-20)
(0.389781 3.49363 0)
(1.11235 0.635471 2.83564e-20)
(1.01222 0.0131372 -9.42893e-22)
(1.02096 -0.0137441 0)
(1.00166 0.000178042 9.93731e-24)
(-0.160528 1.32449 0)
(-0.0813803 2.25135 0)
(-0.0349435 1.74711 0)
(-0.0418578 1.88215 2.80945e-20)
(-0.0212376 1.84093 1.67108e-20)
(1.00272 0.00881095 9.91394e-22)
(1.04232 0.0150676 0)
(1.06945 0.029151 0)
(-0.0137838 1.79182 0)
(-0.00989544 1.81682 0)
(-0.0238831 1.7928 0)
(0.308146 1.21785 -1.84324e-19)
(1.01131 -0.0103312 0)
(1.00919 -0.0154807 0)
(1.0021 0.00047197 9.14711e-20)
(1.00569 -0.00474718 -1.09471e-19)
(1.00104 -0.000859864 0)
(-0.0151134 1.79061 0)
(-0.0131875 1.79449 0)
(-0.0122678 1.79417 0)
(-0.0213713 1.79592 0)
(-0.0165994 1.79312 0)
(-0.0201968 1.79616 0)
(1.02572 -0.00288332 0)
(1.02348 0.0151264 -3.55191e-22)
(0.814144 1.24611 2.14595e-19)
(1.00293 0.000250247 -9.19805e-20)
(1.00351 0.0057453 1.10814e-19)
(1.00116 0.00194586 0)
(1.01292 0.0105523 8.85299e-20)
(1.00853 0.00861335 -1.10871e-19)
(1.00871 0.0158433 0)
(-0.00894848 1.81678 0)
(-0.00604526 1.81187 5.18094e-21)
(-0.00671563 1.81147 -3.55484e-21)
(1.18508 0.245417 -3.94792e-20)
(1.12197 0.0771427 0)
(0.0593463 3.07785 -1.98603e-19)
(0.0694739 2.84891 -1.62176e-20)
(0.14909 3.20114 3.08153e-19)
(0.144062 3.23023 9.25772e-21)
(0.136187 3.24335 0)
(0.0224792 3.13855 4.20578e-20)
(0.0816575 3.16398 1.91231e-19)
(0.0742589 3.19051 -8.28578e-20)
(0.0277125 3.12817 0)
(0.705112 0.324021 0)
(0.620662 0.388571 0)
(1.07897 0.658497 -1.08417e-19)
(1.10096 0.788098 1.67237e-19)
(1.13669 0.548518 0)
(1.18051 0.497649 0)
(1.01718 0.0129427 -1.66396e-19)
(1.01471 0.0169696 2.07522e-19)
(1.02343 -0.0164479 0)
(1.01686 -0.0232615 0)
(1.00677 0.00281526 0)
(1.01013 0.00391652 0)
(1.00419 0.00221802 0)
(1.01006 0.00609532 0)
(1.00733 0.00575142 0)
(1.00558 0.00448049 0)
(-0.166163 1.35407 0)
(-0.143925 1.40562 0)
(-0.150556 1.27079 0)
(0.000267013 1.24028 0)
(-0.133414 2.35945 0)
(0.0332527 2.37673 -1.2322e-19)
(-0.0656149 2.25711 0)
(-0.0262606 2.12844 6.20317e-20)
(-0.026335 1.97606 -5.69096e-20)
(-0.0285394 1.75058 0)
(-0.0185891 1.75724 0)
(-0.0503572 1.72668 0)
(-0.0368241 1.6874 0)
(-0.0758597 1.83831 -1.47068e-20)
(-0.0357126 1.85256 2.18471e-20)
(-0.0414889 1.87928 2.7578e-20)
(-0.0320453 1.86437 0)
(-0.0142554 1.84192 -3.76069e-20)
(-0.00546679 1.83367 -2.03407e-20)
(-0.0699764 1.83147 1.1747e-20)
(-0.0465319 1.84104 -2.79296e-20)
(-0.0548757 1.85485 -3.48227e-20)
(1.01145 0.0167584 1.63417e-19)
(1.01122 0.00485755 -2.01911e-19)
(1.00547 0.0193869 -1.69497e-19)
(0.992861 0.0169745 2.16649e-19)
(1.04216 0.0191422 0)
(1.03739 0.0107593 0)
(1.06321 0.0396821 0)
(1.04998 0.0229473 0)
(1.05279 0.00982404 0)
(1.10206 0.0747293 0)
(1.07929 0.0482777 0)
(1.08867 0.0352327 0)
(-0.0102403 1.80698 -6.2231e-22)
(-0.0134957 1.79594 0)
(-0.0115737 1.79993 0)
(-0.0102357 1.82064 5.7363e-21)
(-0.00961402 1.82148 -2.70222e-22)
(-0.0179828 1.79237 5.6029e-21)
(-0.0181396 1.79271 -5.65358e-21)
(-0.0217884 1.79564 0)
(-0.0183783 1.79601 0)
(-0.0177191 1.79594 0)
(-0.0250751 1.79177 0)
(-0.0238269 1.78298 0)
(0.47007 1.30696 3.7066e-19)
(0.415697 1.37686 1.38726e-19)
(0.61473 2.42835 -6.34862e-20)
(0.343614 2.54312 1.66467e-19)
(0.567128 2.27623 -6.74689e-20)
(1.02096 -0.00808356 0)
(1.01572 -0.00956155 0)
(1.01579 -0.0151939 0)
(1.00795 -0.00123318 0)
(1.00437 -0.00117851 0)
(1.007 -0.00491158 0)
(1.00961 -0.00339092 0)
(1.01397 -0.00416616 0)
(1.02466 0.0160812 1.58108e-19)
(1.01802 0.022928 -2.00504e-19)
(1.02521 0.00995286 -1.56943e-19)
(1.02097 0.00480029 1.96901e-19)
(0.776428 1.27673 0)
(0.708221 1.34224 2.6336e-19)
(0.875144 1.19119 1.54789e-19)
(0.919112 1.15809 -2.05501e-19)
(1.13262 2.61078 -2.48517e-19)
(0.832224 0.0990634 1.10209e-19)
(1.11408 0.0942818 0)
(1.16272 0.168834 3.57056e-20)
(1.16895 0.145078 1.54058e-21)
(0.968381 0.123656 0)
(0.169342 2.96954 1.6713e-20)
(0.130353 2.87678 -2.67142e-19)
(0.048152 2.35551 1.84349e-19)
(0.117272 0.142684 -7.04559e-20)
(0.337772 3.43241 -1.90708e-19)
(0.19694 3.32745 0)
(0.228409 3.36622 2.48189e-19)
(0.262783 3.04815 -2.20597e-19)
(0.363879 3.20663 0)
(0.00652154 3.12042 1.02885e-20)
(0.0167381 3.12929 -1.36999e-19)
(0.0152148 3.12494 2.00922e-19)
(0.0383276 3.14046 0)
(0.0371569 3.15174 0)
(1.18525 2.65072 0)
(0.501978 0.844701 -8.31118e-20)
(1.0394 0.963763 -8.52895e-20)
(0.951204 1.05732 0)
(0.794065 0.949699 2.55106e-20)
(1.02922 0.870204 1.18476e-20)
(0.389223 0.477393 -2.05731e-19)
(0.727448 0.323288 -8.65855e-21)
(0.712981 0.279996 8.41813e-20)
(0.620981 0.430687 6.78824e-21)
(0.562846 0.406988 -2.80294e-19)
(0.708539 0.356523 0)
(0.713443 0.431794 1.37955e-19)
(0.724787 0.417366 0)
(0.658307 0.414455 0)
(0.666873 0.339462 0)
(0.734232 0.59555 4.67499e-20)
(1.1636 0.264618 2.1095e-20)
(1.17731 0.401949 0)
(1.20078 0.351114 0)
(0.769554 0.213028 1.2547e-19)
(0.781475 0.526421 -6.97157e-20)
(0.704782 0.512229 1.11235e-19)
(0.899942 0.3925 -1.02333e-19)
(1.02146 0.0200804 1.08047e-19)
(1.01988 0.0174275 -1.11205e-19)
(1.01606 0.0228871 0)
(1.02484 -0.00927269 0)
(1.02309 -0.0187169 -9.81859e-20)
(1.01339 -0.0226466 9.71616e-20)
(1.03645 0.00586625 0)
(1.03042 0.0121364 0)
(1.01116 0.00311105 0)
(1.01497 0.00780559 0)
(1.01596 0.00355781 0)
(1.0135 0.00160525 0)
(-0.153494 1.48099 0)
(-0.102104 1.52707 0)
(-0.213778 1.22654 1.19106e-19)
(0.294971 1.22538 1.1188e-19)
(0.0363372 1.18601 2.33865e-19)
(0.186514 1.16755 -3.82829e-19)
(-0.0297977 1.26848 0)
(-0.34142 1.99179 2.23139e-19)
(-0.377697 1.927 0)
(0.490303 2.32492 9.82419e-20)
(0.339473 2.52399 7.73018e-20)
(-0.19149 1.85152 -1.96079e-19)
(0.311289 1.12124 1.21977e-19)
(0.0180648 1.21912 -9.72823e-20)
(0.40576 1.18959 3.07283e-19)
(0.12267 1.85808 0)
(0.331953 1.88435 -2.31807e-19)
(-0.149027 1.94888 -7.77172e-21)
(-0.0282916 2.00953 0)
(-0.173042 2.05585 3.49253e-20)
(-0.139136 1.98563 0)
(-0.0262529 2.10049 -6.89345e-20)
(-0.0121879 2.03569 0)
(-0.0770267 1.789 -1.2709e-20)
(-0.0984862 1.81928 0)
(-0.0968093 1.74175 0)
(-0.0814909 1.76321 1.43067e-20)
(-0.0454817 1.90085 -3.90548e-21)
(-0.0322265 1.95821 6.4512e-20)
(-0.0319916 1.9345 4.42805e-22)
(-0.0392241 1.82158 9.8461e-21)
(-0.0492983 1.81554 6.19679e-21)
(-0.0184305 1.76554 0)
(-0.0170565 1.76649 0)
(-0.147596 1.88109 1.65911e-20)
(-0.14058 1.75906 1.02183e-20)
(-0.129705 1.82726 -1.43259e-20)
(-0.216775 1.90238 0)
(-0.0148592 1.81117 -2.05276e-20)
(-0.0141043 1.819 9.25475e-21)
(-0.0144775 1.81871 -2.8694e-21)
(-0.0323871 1.8201 -1.18181e-20)
(-0.0143547 1.828 -4.73831e-21)
(-0.0160062 1.83606 2.43176e-20)
(1.0226 0.00309074 -1.05364e-19)
(1.01883 0.00754561 1.07605e-19)
(1.0167 -0.00186841 0)
(0.995915 0.046445 1.54556e-19)
(0.99197 0.0330006 -1.81305e-19)
(0.965675 0.0223801 2.10665e-19)
(0.994249 0.07896 -2.00405e-20)
(1.02607 0.00405019 0)
(1.03235 0.0148195 8.93994e-20)
(1.02863 0.00818108 -8.90254e-20)
(1.0399 0.0386498 -4.81727e-21)
(1.04336 0.0261611 4.26887e-20)
(1.03437 0.0500887 0)
(1.02613 0.0410683 -1.60726e-20)
(1.02319 0.0234026 0)
(1.01963 0.0228301 0)
(1.03851 0.00704457 0)
(1.03295 0.00618154 0)
(1.03004 0.0240213 3.35678e-20)
(1.03233 0.0172616 -7.59079e-20)
(1.03065 0.0284146 -3.35744e-20)
(1.03103 0.0283813 -3.91359e-20)
(1.03029 0.0569226 7.01094e-20)
(1.06436 0.051343 0)
(1.06525 0.0907662 0)
(-0.0150944 1.81167 -8.5251e-21)
(-0.0140491 1.80012 -7.12328e-22)
(-0.0159032 1.80035 0)
(-0.0100755 1.81252 8.84496e-21)
(-0.00968913 1.80789 1.27462e-21)
(-0.00971985 1.81186 -1.40824e-21)
(-0.00546059 1.83188 1.75913e-20)
(-0.0136994 1.82362 -1.05143e-21)
(-0.0121328 1.82402 5.1989e-21)
(-0.00817954 1.82577 -8.90868e-21)
(-0.00656191 1.82756 1.06847e-20)
(-0.0220815 1.79551 2.23859e-22)
(-0.020375 1.79613 8.85636e-21)
(0.53829 1.24518 -1.93003e-19)
(0.561574 1.34161 -2.6546e-19)
(0.659194 1.3765 -2.54604e-19)
(0.543582 1.39761 -1.33462e-19)
(0.551589 1.41143 0)
(0.594887 2.40073 4.7806e-20)
(0.703328 2.36318 9.19148e-20)
(0.385718 2.55107 4.21181e-20)
(0.371993 2.64204 -4.79766e-20)
(0.537835 2.60958 5.96936e-20)
(0.516936 2.46027 0)
(0.545068 2.44797 -1.46433e-19)
(0.0148719 2.51438 3.15258e-19)
(0.241055 2.5595 -1.38241e-20)
(0.207457 2.49727 -4.03697e-19)
(0.894174 2.33366 6.84163e-20)
(0.806328 2.32974 0)
(1.0106 -0.000410417 3.58816e-21)
(1.01422 -0.00496784 -2.97987e-21)
(1.01687 -0.00414887 -5.32427e-20)
(1.01307 -0.00249458 5.33833e-20)
(1.01226 0.000901966 0)
(0.645407 1.25053 0)
(0.648533 1.14652 0)
(0.741676 1.06426 0)
(0.637349 1.09162 0)
(1.16396 2.62723 2.21656e-20)
(1.03504 2.35097 0)
(0.810933 2.27839 -8.30645e-22)
(0.817517 2.48 0)
(0.890884 2.56692 -6.45088e-22)
(0.913541 2.53995 4.21463e-22)
(0.838618 0.134103 0)
(0.805225 0.144189 3.15964e-20)
(0.912377 0.125138 1.61268e-19)
(0.85925 0.115173 -6.51036e-20)
(0.856082 0.0698006 -1.95081e-19)
(1.02053 0.211001 -8.74714e-20)
(0.960216 0.275552 -5.85008e-21)
(0.889304 0.260599 1.43677e-19)
(0.963654 0.209148 1.07535e-19)
(0.930763 0.161236 -2.00769e-19)
(0.902674 0.172523 2.58382e-20)
(0.916884 0.2336 -5.0529e-20)
(0.901623 0.194797 0)
(0.966229 0.161013 9.5713e-20)
(1.00028 0.161197 0)
(0.99669 0.197896 0)
(1.04846 0.0994251 3.03251e-20)
(1.02391 0.150008 -5.72963e-21)
(1.01499 0.208309 -1.47232e-20)
(1.04888 0.180197 0)
(1.01284 0.0232517 8.10456e-20)
(1.02295 0.0430271 9.42016e-20)
(1.02116 0.0273009 -7.95687e-20)
(1.01601 0.0488644 -6.35699e-20)
(1.00365 0.0514021 -1.09071e-19)
(0.971231 0.124008 0)
(0.984113 0.0771323 0)
(0.968359 0.0472627 -7.61304e-20)
(0.932593 0.0554239 3.1932e-20)
(0.998865 0.0774192 9.07024e-20)
(1.01974 0.0987829 -9.09106e-20)
(1.02945 0.117592 8.04874e-20)
(0.991395 0.123014 0)
(1.02977 0.0886076 0)
(1.01813 0.0748831 -3.80061e-20)
(1.01408 0.0787089 -7.22357e-20)
(0.576209 1.06489 -4.80391e-20)
(0.64225 1.46497 8.33653e-20)
(1.15594 2.77738 5.94477e-20)
(1.23715 3.08921 -3.56421e-20)
(1.23421 2.72849 2.75945e-19)
(1.27011 2.72334 -1.65982e-19)
(1.14881 2.35384 1.03319e-20)
(1.22305 2.98822 9.51619e-20)
(1.23836 2.96149 -1.10318e-19)
(1.2412 3.24356 -1.42967e-19)
(1.36215 2.98325 1.67476e-19)
(1.30515 2.90051 0)
(0.503301 0.854433 -3.99391e-21)
(0.138214 1.29767 1.49587e-19)
(0.53758 0.545925 1.38844e-19)
(0.344417 0.312731 1.44906e-19)
(0.558215 0.456926 1.57222e-19)
(0.56123 0.495983 -2.43236e-19)
(0.547947 0.53539 1.98559e-19)
(0.513711 0.487461 -8.18975e-20)
(0.470654 0.419628 1.89126e-19)
(0.773693 0.255494 -6.98228e-20)
(0.740037 0.298803 0)
(0.737175 0.24819 4.5574e-21)
(0.694089 0.522955 7.04814e-20)
(0.683331 0.484688 -2.61678e-19)
(0.601918 0.509698 6.65161e-21)
(0.630171 0.482981 0)
(0.616094 0.735874 5.51426e-20)
(0.78152 0.771863 1.08433e-20)
(0.703949 0.856163 -1.64486e-20)
(0.818603 0.796141 -3.4909e-21)
(0.86433 0.82447 7.07527e-21)
(0.869189 0.832103 -7.26839e-21)
(0.781545 0.613099 -8.09653e-20)
(0.863873 0.685981 3.25384e-21)
(0.927519 0.692988 0)
(0.908108 0.662425 -4.01667e-21)
(0.980197 0.295056 2.21871e-20)
(1.05752 0.275035 6.28682e-22)
(1.00358 0.255613 3.52968e-20)
(0.957805 0.332951 -5.23758e-20)
(0.99547 0.39682 0)
(1.04742 0.387055 0)
(0.881918 0.320541 1.94045e-21)
(0.835389 0.269042 0)
(0.837717 0.259005 7.52965e-20)
(0.88909 0.263941 -4.03992e-21)
(0.88531 0.391843 2.79583e-19)
(0.8334 0.460214 7.17822e-20)
(0.840997 0.421944 -9.34417e-20)
(0.788258 0.414373 1.0032e-19)
(0.774338 0.417721 6.99086e-20)
(0.764471 0.409325 -6.79183e-20)
(1.02609 -0.0129156 8.5751e-20)
(1.02332 -0.00874665 0)
(1.02127 -0.00785522 5.74977e-20)
(1.02407 -0.0134183 -1.28697e-19)
(1.03211 -0.000559797 6.19315e-20)
(1.02668 0.0123061 -1.31148e-19)
(1.0271 0.0151125 0)
(1.02317 0.013905 -2.74444e-20)
(1.01909 0.00759988 6.84929e-20)
(1.01682 0.0105386 -3.49455e-20)
(1.02081 0.0130955 2.58643e-20)
(-0.06371 1.67568 0)
(-0.11787 1.72732 0)
(-0.0935426 1.59769 0)
(-0.0522684 1.6147 0)
(-0.301727 1.65346 -1.0271e-19)
(-0.293866 1.48247 2.64889e-20)
(-0.364924 1.93347 3.31559e-20)
(-0.436678 1.70811 -8.47248e-20)
(-0.193725 1.76672 -2.84395e-21)
(-0.213733 1.75814 1.46666e-21)
(-0.263226 1.62916 2.13338e-20)
(-0.234589 1.63473 3.06505e-20)
(-0.176161 1.66506 2.03519e-21)
(-0.156733 1.70306 -2.32332e-22)
(-0.224752 2.14926 -3.59868e-20)
(-0.243983 2.22443 0)
(-0.33373 2.25056 -1.80537e-20)
(-0.399636 2.01636 -2.16861e-20)
(-0.0380524 2.29589 3.65649e-20)
(-0.0286354 2.57996 0)
(0.0796696 2.56055 -1.13155e-20)
(0.164035 2.58838 8.01084e-21)
(-0.216915 2.29785 7.10481e-20)
(-0.316617 2.28002 -5.89055e-20)
(-0.21783 2.45751 0)
(-0.110652 1.86416 -2.72009e-20)
(-0.0866711 1.85745 -5.06652e-20)
(-0.0907513 1.84689 0)
(-0.0882748 1.91224 -1.96035e-21)
(-0.12175 1.91293 1.60291e-20)
(-0.0419852 1.78362 2.15092e-21)
(-0.0271435 1.78307 -3.23957e-20)
(-0.0285804 1.79401 8.49419e-21)
(-0.0443385 1.79969 1.17426e-20)
(-0.0617402 1.79898 0)
(-0.02601 1.79433 0)
(-0.0244028 1.78305 9.5876e-21)
(-0.0257223 1.79465 -3.10711e-21)
(-0.0247721 1.79445 0)
(-0.0210353 1.77442 7.519e-21)
(-0.0211315 1.77376 -1.46872e-20)
(1.03285 0.0177275 0)
(1.03527 0.0188149 -8.26826e-21)
(1.03616 0.0189809 -6.06183e-20)
(1.03417 0.0195152 0)
(1.03356 0.0210869 0)
(1.03892 0.0105948 -2.15911e-21)
(1.03823 0.00944228 1.01136e-19)
(1.03438 0.00880305 1.23448e-19)
(1.03329 0.00698366 0)
(1.02741 0.00418525 0)
(1.0307 0.0155409 6.1521e-20)
(1.02432 0.0110154 0)
(1.02592 0.00787513 0)
(-0.0173832 1.81508 0)
(-0.0216171 1.79627 7.71537e-22)
(-0.0195716 1.80698 4.82963e-21)
(-0.0258488 1.7956 0)
(-0.0236754 1.79951 6.13547e-21)
(-0.0244605 1.79797 -3.12203e-21)
(-0.0263727 1.79582 0)
(0.530291 1.6884 0)
(0.610707 1.31199 3.9317e-19)
(0.544316 1.45977 0)
(0.59585 1.3314 -4.46024e-19)
(0.539005 1.34021 0)
(0.570907 1.33183 1.94338e-19)
(1.00895 2.70011 -1.41696e-21)
(0.927587 2.37299 -8.37121e-20)
(0.83831 2.09381 1.27185e-19)
(0.81825 2.32157 4.22945e-20)
(0.846392 2.50626 0)
(0.87331 2.51124 0)
(0.869394 2.33287 0)
(0.873585 2.26036 -1.56269e-19)
(0.755467 2.48195 -8.5429e-21)
(0.814252 2.48332 -7.97255e-21)
(0.803689 2.45741 6.43956e-21)
(0.687367 2.35212 0)
(0.771927 2.32746 0)
(0.743955 2.34412 -8.31956e-20)
(0.793234 2.47882 0)
(0.609467 1.07471 0)
(0.476725 0.916555 1.49861e-20)
(0.532555 0.938789 2.79219e-22)
(0.520619 1.02515 0)
(0.522055 0.981179 -2.27574e-20)
(0.720035 0.882189 9.87946e-21)
(0.763209 1.00144 0)
(0.732669 0.964167 -3.15534e-20)
(0.612418 1.01748 0)
(0.597141 0.928787 0)
(1.1466 2.78935 2.8404e-20)
(1.12842 2.85548 5.78255e-20)
(0.926069 2.39361 -1.27946e-19)
(0.889604 2.36754 1.61026e-20)
(1.10368 2.75174 0)
(1.05138 2.72258 -2.00336e-20)
(1.05515 2.48111 -2.68688e-20)
(0.935859 2.20105 -1.20726e-20)
(0.450361 1.42234 0)
(0.45308 1.05487 4.20921e-20)
(0.551869 1.13973 0)
(0.840916 0.22011 0)
(0.8116 0.175396 0)
(0.770676 0.186943 0)
(0.830304 0.228639 -1.19144e-19)
(0.781296 0.225158 7.39202e-20)
(0.934398 0.0534661 -6.53605e-20)
(0.94093 0.100582 0)
(0.924933 0.107725 3.00198e-20)
(0.887226 0.079457 1.2373e-19)
(0.888269 0.0556945 -7.61836e-20)
(1.17392 3.37595 -4.2499e-19)
(1.22677 3.29278 0)
(1.14088 3.39367 -8.12698e-19)
(0.63943 3.5544 7.14906e-19)
(0.847701 3.11712 1.54628e-19)
(0.467988 0.880009 8.13782e-20)
(0.415637 0.860042 0)
(0.323912 0.580243 -3.04224e-20)
(0.407185 0.688189 1.36019e-19)
(0.528082 0.552334 -4.14012e-20)
(0.511436 0.57115 4.66351e-20)
(0.620524 0.538987 1.01633e-19)
(0.643958 0.551703 0)
(0.601427 0.622145 0)
(0.566713 0.559901 0)
(0.909867 0.579043 -2.24776e-20)
(0.833439 0.511314 -6.88155e-20)
(0.855689 0.551235 3.23613e-20)
(0.901701 0.488497 -5.01579e-20)
(1.01465 0.462586 0)
(1.00083 0.538892 -1.41818e-21)
(0.828936 0.36561 -1.50755e-19)
(0.835964 0.353373 -1.66497e-19)
(0.811326 0.361705 1.17958e-19)
(0.797553 0.339133 -1.34244e-19)
(0.831972 0.300349 -1.00084e-19)
(0.791777 0.30724 1.23131e-19)
(1.03721 9.36973e-05 -6.43116e-20)
(1.0397 0.0010746 1.32852e-19)
(1.02923 -0.00880507 8.10267e-20)
(1.03486 -0.00541978 -9.7675e-20)
(1.03593 0.0110016 0)
(1.03778 0.00962319 -1.59491e-19)
(-0.242669 1.92215 1.24237e-20)
(-0.24949 1.88609 0)
(-0.35575 1.99362 -5.53794e-20)
(-0.35884 1.99133 5.96645e-20)
(-0.362812 1.91795 -6.1223e-20)
(-0.339002 1.92097 0)
(-0.0249301 1.81742 0)
(-0.0259403 1.80291 -3.49523e-21)
(-0.0245329 1.80024 3.14002e-21)
(-0.0245456 1.80174 8.34053e-22)
(-0.0188115 1.81486 -6.09484e-21)
(-0.0186308 1.81658 3.86587e-21)
(0.497366 1.43184 1.45052e-19)
(0.49498 1.4457 -1.53055e-19)
(0.556518 1.33516 2.01458e-19)
(0.576136 1.40294 -8.85417e-21)
(0.627809 1.28119 0)
(0.573971 1.35686 2.28803e-19)
(0.586559 1.35386 -2.24158e-19)
(0.554002 1.3063 -1.95963e-19)
(0.549098 1.28144 0)
(0.548922 1.22509 0)
(0.768129 2.46602 1.28013e-20)
(0.740946 2.49073 2.00094e-19)
(0.783659 2.47717 -1.3362e-19)
(0.705543 2.49826 -4.18006e-20)
(0.659073 2.65527 7.41266e-21)
(0.558037 2.66364 -4.82859e-20)
(0.938832 2.34056 -6.97182e-20)
(0.976278 2.3767 0)
(0.858247 2.09887 -8.77545e-20)
(1.02296 2.7053 0)
(1.01679 2.68698 0)
(0.604691 2.26426 8.4212e-20)
(1.02904 3.16042 1.96359e-19)
(0.899918 3.02229 -1.49711e-19)
(0.289654 0.982849 0)
(0.340056 0.837887 -5.75914e-20)
(0.462545 0.783922 -2.07683e-20)
(0.413169 2.02449 0)
(0.475402 2.79263 -1.09534e-19)
(0.438766 2.5847 0)
(0.624431 0.68191 -1.12819e-19)
(0.705111 0.674332 1.39247e-19)
(0.735477 0.613987 -1.33864e-19)
(0.617304 0.638168 -1.71744e-20)
(0.673142 0.594514 -7.0023e-20)
(1.0187 2.77104 -1.48276e-19)
(1.04278 2.83922 1.45968e-19)
(0.668381 2.18349 2.89598e-20)
(0.583704 1.72275 -3.02234e-20)
(0.729709 1.92155 6.67037e-20)
(1.00015 2.48586 -1.69013e-20)
(1.0032 2.50219 -1.06159e-19)
(0.690586 1.90552 -4.60112e-21)
(0.471667 1.3323 -4.0475e-20)
)
;

boundaryField
{
    wall-4
    {
        type            noSlip;
    }
    velocity-inlet-5
    {
        type            fixedValue;
        value           uniform (1 0 0);
    }
    velocity-inlet-6
    {
        type            fixedValue;
        value           uniform (0 3 0);
    }
    pressure-outlet-7
    {
        type            zeroGradient;
    }
    wall-8
    {
        type            noSlip;
    }
    frontAndBackPlanes
    {
        type            empty;
    }
}


// ************************************************************************* //
