/*--------------------------------*- C++ -*----------------------------------*\
| =========                 |                                                 |
| \\      /  F ield         | OpenFOAM: The Open Source CFD Toolbox           |
|  \\    /   O peration     | Version:  4.0                                   |
|   \\  /    A nd           | Web:      www.OpenFOAM.org                      |
|    \\/     M anipulation  |                                                 |
\*---------------------------------------------------------------------------*/
FoamFile
{
    version     2.0;
    format      ascii;
    class       volScalarField;
    location    "37";
    object      p;
}
// * * * * * * * * * * * * * * * * * * * * * * * * * * * * * * * * * * * * * //

dimensions      [0 2 -2 0 0 0 0];

internalField   nonuniform List<scalar> 
918
(
0.613853
1.26669
0.00524455
0.613196
0.000971725
1.23371
-0.44247
0.777723
0.594002
-0.0344172
0.0241425
0.589263
1.09449
0.861021
-1.06951
0.056165
0.7283
-0.321359
0.593025
0.0356124
0.814001
0.600585
0.603616
0.594203
0.657
0.840391
0.975651
0.0163269
-0.00370444
-0.00462736
0.019434
0.00171387
0.0202919
1.11735
1.16845
1.19114
0.562294
0.387561
-0.303661
-0.373118
-0.364632
-0.489137
0.77003
0.771805
-0.114927
0.779182
0.788571
0.581189
0.593364
0.594253
0.595343
0.594293
0.595687
0.469666
-0.0391712
-0.0715042
-0.0146827
-0.00345846
0.118102
0.0269021
0.0268416
0.0283774
0.0308538
0.513181
0.585036
0.582251
0.594347
0.602691
1.20624
1.17815
1.20429
1.11806
1.1345
1.07245
1.04504
0.881179
0.90312
0.846968
0.833282
-1.50788
-2.47087
-0.47319
-0.218645
-0.000218835
0.0524412
0.0672958
0.719369
0.717731
0.729714
0.741784
1.14084
-0.316245
-0.436331
0.593146
0.591942
0.600337
0.601033
0.597047
0.596141
0.0402176
0.0427721
0.0251398
0.0328847
0.0333308
0.803294
0.801454
0.594744
0.591763
0.610043
0.630823
0.622763
0.344956
0.660931
0.672967
0.663715
0.828451
0.824494
0.832462
0.949259
0.913256
1.01255
1.03574
0.00582864
0.00197789
0.0436003
0.0291109
0.037589
0.558233
0.55099
0.577208
0.56565
0.568082
0.303358
0.168468
0.472989
0.49811
-0.215339
-0.276716
-0.374947
-0.395469
-0.508824
0.662178
0.760733
0.760082
-0.13514
-0.0576818
-0.190677
0.0151046
-0.0445937
0.571599
0.578506
0.57356
0.588954
0.583456
0.585405
0.597598
0.59467
0.596231
0.533261
0.657692
0.396138
0.361126
-0.182069
-0.0908148
-0.184332
0.00855998
0.0131244
0.135097
0.1626
0.110666
0.0991575
0.0204076
0.0272252
0.0249853
0.034932
0.0362145
0.506396
0.495818
0.525451
0.5328
0.575344
0.576461
0.579692
0.578216
0.995762
1.01821
1.02573
0.999386
-3.47285
-6.27737
0.110782
0.249783
0.00387727
0.0127204
0.00365232
0.0256561
0.0114833
0.00465063
0.0727673
0.0695015
0.063918
0.0712526
0.704272
0.703614
1.05898
1.05845
1.04136
0.990785
0.581221
0.583346
0.588915
0.584758
0.0379082
0.043682
0.0438585
0.789336
0.79713
0.795779
0.30817
0.221588
0.393775
0.421432
0.691426
0.67686
0.689091
0.725982
0.763148
1.04319
1.06145
1.05965
1.06799
1.11194
1.12827
1.09375
0.538372
0.547961
0.543109
0.580391
0.578099
0.579041
0.574589
0.576029
0.573834
0.0164205
-0.367317
0.549646
0.56727
0.546805
0.553512
0.741583
0.817578
0.742185
0.751927
0.750316
0.0804899
0.0238825
0.318932
0.286125
0.448399
0.483411
0.463207
0.96711
0.927202
0.977368
0.95064
0.911838
0.938033
-0.318958
-1.83316
-0.943941
0.605666
0.416551
0.505652
0.0824062
0.0758022
0.07709
1.05312
1.13179
0.713791
0.881539
0.889869
0.798648
0.827824
0.887483
0.813474
0.848059
0.881726
0.859609
0.618308
0.562465
0.573157
0.886967
0.942652
0.195393
0.140585
0.0960157
0.180485
0.237131
0.209263
1.09568
0.998807
1.07039
0.591513
0.592211
0.0191294
0.0399974
0.59636
0.59641
0.0222957
0.0384977
0.487325
-0.779637
0.184122
0.584846
0.575055
0.592013
-0.0166572
0.426925
0.0260136
0.123013
0.07353
0.587078
0.523586
0.484415
0.0501368
0.0403028
0.0365622
-0.145288
0.589184
0.587494
0.591472
0.592452
0.593112
0.0410344
0.0352254
0.0307062
0.0405377
0.039041
0.0370538
0.556637
0.574044
-0.100089
0.591601
0.593726
0.59354
0.586716
0.592408
0.590612
0.0547783
0.0427116
0.0466672
0.292343
0.414459
0.733893
0.828318
0.700668
0.473442
0.23437
0.633711
0.698977
0.601753
0.759678
0.753544
0.772372
0.24784
0.100487
0.255962
0.197303
0.582714
0.581367
0.573308
0.570401
0.586855
0.584967
0.589527
0.586499
0.589477
0.590875
0.0214886
-0.000528244
-0.0135903
-0.0764499
0.383017
0.643929
0.321135
0.351908
0.212009
0.0321323
0.0319305
0.0277882
0.0249267
0.0717175
0.0578323
0.116223
0.119139
0.0946071
0.074418
0.0641756
0.0577007
0.0539746
0.580582
0.578913
0.585314
0.59395
0.532921
0.536668
0.502893
0.522661
0.50874
0.449439
0.483843
0.459476
0.0367523
0.0569994
0.0282651
0.0440654
0.0485288
0.0568047
0.0508241
0.0479998
0.0479601
0.0456751
0.0442903
0.0429063
-0.104462
-0.218123
1.04626
0.981633
0.190352
0.57837
0.584796
0.581579
0.586383
0.589508
0.590349
0.588102
0.584682
0.574585
0.576341
0.572805
0.573533
-0.0382025
-0.17447
-0.00123943
-0.0697245
0.197437
0.684259
0.426852
0.366626
0.361253
0.583389
0.986424
0.781192
0.773835
0.795905
-0.283879
0.113157
-0.216564
0.402498
0.224391
0.733173
0.782136
0.802818
0.75132
0.703511
-0.0538165
0.60751
0.00894981
0.0549669
0.24911
0.138882
0.774935
0.736893
0.74276
0.760698
0.780139
0.742586
0.723326
0.719046
0.756281
0.759724
0.5598
0.325034
0.279729
0.240481
0.719823
0.600095
0.657118
0.569043
0.577672
0.58044
0.579029
0.561349
0.568702
0.564408
0.570276
0.57355
0.582605
0.582963
0.578355
0.580551
0.019901
0.0187313
0.0377993
-0.0696185
-0.0591026
-0.118756
-0.000436616
0.138791
0.100943
0.297688
0.403168
0.116302
0.000359795
0.0297659
0.0634399
0.242483
0.267217
0.141847
0.231086
0.216409
0.202668
0.305325
0.311501
0.0472673
0.0399458
0.0419607
0.0402569
0.0931082
0.162037
0.173552
0.0697142
0.0621656
0.0343559
0.0344393
0.0452864
0.0444409
0.0452231
0.0827852
0.000744399
0.0443964
0.0689738
0.0747931
0.0677158
0.0629719
0.573486
0.575454
0.575235
0.583223
0.599894
0.615434
0.57426
0.55463
0.545556
0.548545
0.522162
0.532104
0.527887
0.541234
0.561461
0.570456
0.568482
0.571072
0.554261
0.555717
0.542623
0.546535
0.522446
0.504294
0.492755
0.0436741
0.0619571
0.0707532
0.0314492
0.0691373
0.0681169
0.0703501
0.0830356
0.0669789
0.0593175
0.0597328
0.0533066
0.0570895
-0.0110804
0.0684823
-0.120848
-0.153692
-0.223606
0.950354
1.07083
0.873953
0.64995
0.664076
0.902831
0.988704
0.611763
0.797288
0.820672
0.635018
0.902907
0.583194
0.582797
0.580393
0.579881
0.581122
0.0508871
0.152123
0.160733
0.215142
0.329235
0.442303
0.367288
0.24524
0.378255
0.382256
0.679537
0.694733
0.644365
0.667362
0.665288
0.492406
0.570955
0.625288
0.578105
0.625081
0.647625
0.608002
0.638659
0.584458
0.540369
0.538201
0.486219
0.507601
0.485406
0.46707
0.572861
0.550661
0.560802
0.551915
0.571371
0.596144
0.592118
0.621917
0.633016
0.555791
0.514451
0.524279
0.553043
0.513995
0.527881
0.543584
0.279963
0.178914
0.263894
-0.0273613
0.0534139
0.0383722
-0.00869128
0.0366457
0.322435
-0.375407
-0.348315
-0.980999
0.546778
1.01709
0.728074
0.700875
0.776
0.754707
0.757945
0.781073
0.787668
0.709556
0.728072
0.731205
0.689165
0.712316
0.735895
0.733258
0.58099
0.454123
0.44633
0.404703
0.27838
0.312854
0.515022
0.437509
0.363446
0.36632
0.529002
0.417125
0.48351
0.522295
0.454028
0.409115
0.613377
0.67923
0.669213
0.643901
0.561127
0.574882
0.599887
0.635751
0.662794
0.694993
0.570028
0.575846
0.577115
0.574582
0.571822
0.574739
0.57486
0.577383
0.578203
0.581127
0.58012
0.0297755
0.0413728
0.02985
0.0214214
0.047072
0.0422147
0.0877997
0.0749005
0.0605327
0.066939
0.0404794
0.0371039
0.0429775
0.0515295
0.161143
0.175463
0.160836
0.121168
0.309724
0.441546
0.511723
0.388599
0.282315
0.30648
0.329488
0.0537697
0.0832766
0.06877
0.10976
0.100226
0.043
0.0410833
0.042949
0.0448419
0.0567113
0.0408927
0.0456522
0.0533257
0.0429055
0.0395473
0.040566
0.556786
0.550292
0.551582
0.54571
0.544621
0.558284
0.562607
0.564403
0.569748
0.571714
0.562272
0.567703
0.571266
0.0695058
0.0531484
0.0416529
0.0601262
0.0607428
0.0582024
0.0583208
0.180516
0.108807
0.114768
0.0680942
-0.0592318
-0.00188495
0.542488
0.539459
0.535605
0.772533
0.623408
0.541838
0.637385
0.743966
0.330117
0.528372
0.361864
0.942401
0.835557
0.98154
0.598461
0.294147
0.448785
0.499405
0.308032
0.380321
0.386019
0.274751
0.30652
0.338389
0.439247
0.316448
0.290822
0.0490809
0.237123
0.353607
0.334678
0.462297
0.524475
0.314188
0.233616
0.189446
0.671413
0.69061
0.710251
0.680474
0.7049
0.632197
0.621814
0.639674
0.64776
0.643878
-0.709236
-0.417263
-1.361
-0.675888
-0.226424
0.576373
0.539681
0.819548
0.706316
0.770314
0.75532
0.714194
0.680425
0.693
0.725184
0.422285
0.533517
0.507578
0.513689
0.414701
0.347728
0.648274
0.642295
0.678446
0.702486
0.669773
0.702848
0.567792
0.567414
0.567122
0.563537
0.56184
0.563992
0.125012
0.0949368
0.129118
0.11022
0.0875454
0.0763089
0.0695474
0.063623
0.059283
0.0574284
0.0627845
0.0635487
0.220888
0.163064
0.0863174
0.117133
0.0548729
-0.0114064
-0.0300508
0.0714175
0.16411
0.154225
0.46115
0.712159
0.533422
0.701913
0.541947
0.597343
0.525928
0.517933
0.545221
0.431996
0.512172
0.276034
-0.227115
-0.135736
0.834294
0.852592
0.633922
0.448017
0.219318
0.408532
0.606877
0.542568
0.581109
0.650032
0.642055
0.061988
0.12903
0.388274
0.615952
0.284412
0.276478
0.271231
0.445315
0.370113
)
;

boundaryField
{
    wall-4
    {
        type            zeroGradient;
    }
    velocity-inlet-5
    {
        type            zeroGradient;
    }
    velocity-inlet-6
    {
        type            zeroGradient;
    }
    pressure-outlet-7
    {
        type            fixedValue;
        value           uniform 0;
    }
    wall-8
    {
        type            zeroGradient;
    }
    frontAndBackPlanes
    {
        type            empty;
    }
}


// ************************************************************************* //
