/*--------------------------------*- C++ -*----------------------------------*\
| =========                 |                                                 |
| \\      /  F ield         | OpenFOAM: The Open Source CFD Toolbox           |
|  \\    /   O peration     | Version:  4.0                                   |
|   \\  /    A nd           | Web:      www.OpenFOAM.org                      |
|    \\/     M anipulation  |                                                 |
\*---------------------------------------------------------------------------*/
FoamFile
{
    version     2.0;
    format      ascii;
    class       volVectorField;
    location    "37";
    object      U;
}
// * * * * * * * * * * * * * * * * * * * * * * * * * * * * * * * * * * * * * //

dimensions      [0 1 -1 0 0 0 0];

internalField   nonuniform List<vector> 
918
(
(0.985164 -0.000500272 0)
(0.00500993 2.96625 0)
(-0.0146662 0.797489 0)
(0.979703 0.00214872 0)
(-0.0786995 1.88391 -2.03941e-21)
(-0.00704124 2.94879 -2.6454e-18)
(0.829657 1.17177 3.89521e-19)
(0.301898 0.139243 -1.7273e-20)
(0.999909 -0.0002827 0)
(0.0547462 0.823268 0)
(0.00819051 0.630789 0)
(0.734645 -0.0129089 0)
(0.0111052 2.93034 0)
(0.00259248 2.7946 0)
(-0.0175172 3.157 7.26595e-19)
(-0.0122201 1.84652 -5.10416e-20)
(0.372515 0.040638 1.13715e-18)
(0.190507 1.18069 2.56908e-19)
(0.962783 0.00501674 0)
(0.00568553 0.620521 0)
(0.0709364 0.185787 -8.15734e-19)
(1.00198 -0.0049817 0)
(1.00022 -0.00979387 0)
(0.975723 -0.00644348 0)
(0.585698 -0.0364728 0)
(0.0158919 2.63855 0)
(-0.0148956 2.91002 9.85679e-19)
(-0.00842498 0.849279 0)
(-0.0191544 1.0177 0)
(-0.00751222 0.824382 0)
(-0.0846469 2.58037 0)
(-0.0584179 2.00916 1.62284e-21)
(-0.0329929 1.77209 0)
(-0.0206141 2.9876 -9.56191e-23)
(-0.0166926 3.0053 2.05609e-18)
(0.00210455 3.00019 0)
(0.870639 -0.00941126 0)
(0.403186 0.936578 2.15027e-19)
(0.809612 1.18857 -3.93499e-19)
(0.956356 1.02686 4.57073e-19)
(0.679878 1.2819 -8.93722e-20)
(0.679419 1.26663 5.24387e-19)
(0.343667 0.224213 1.68513e-20)
(0.317278 0.109686 0)
(1.13108 0.55141 0)
(0.309224 0.218083 7.70031e-20)
(0.27254 0.146367 -7.99076e-20)
(0.919735 -0.00746089 0)
(1.00027 0.000144232 0)
(0.999909 0.000329898 0)
(1.00363 -0.00777472 0)
(1.00096 -0.000932863 0)
(1.00017 2.87677e-05 0)
(0.0810571 1.80707 -8.99445e-19)
(0.0321505 0.998965 0)
(0.0869171 0.890272 0)
(0.0116663 0.95247 0)
(0.0357555 0.764005 0)
(0.0236084 2.00125 0)
(0.0179892 0.816708 0)
(0.0227847 0.653985 0)
(-0.000692316 0.802911 0)
(-0.00779831 0.619374 0)
(0.837441 -0.0156868 0)
(0.848957 0.0281339 0)
(0.767861 -0.00268338 0)
(0.820721 0.0378377 0)
(0.702978 -0.0182229 0)
(0.0146944 3.0004 9.83132e-19)
(0.0115142 3.00797 0)
(0.00612502 3.0028 0)
(0.0135459 2.99734 1.11949e-23)
(0.00798003 2.95847 -1.46118e-18)
(0.0144844 2.98203 0)
(0.0108155 2.90363 0)
(0.024967 2.93054 2.29056e-24)
(0.0044321 2.82476 0)
(0.0308924 2.91598 0)
(-0.00573273 2.74536 0)
(0.308546 3.55393 0)
(-0.131857 3.63551 0)
(0.139768 3.24736 -6.7618e-19)
(-0.0124035 2.98241 0)
(-0.038184 2.19739 0)
(-0.0108471 2.11758 5.03406e-20)
(0.00314241 1.86745 -5.99364e-20)
(0.465219 0.144796 -3.93447e-19)
(0.370208 0.0225229 -3.79376e-19)
(0.449683 0.166647 -1.18496e-18)
(0.357961 0.0604247 -7.81504e-19)
(0.219889 0.951027 0)
(0.272979 1.32249 -3.22995e-19)
(0.375993 1.26644 5.43745e-19)
(0.98749 0.00856254 0)
(0.941947 0.00588073 0)
(1.0003 0.000578691 0)
(1.00286 0.00930591 0)
(1.00302 0.00846069 -3.03253e-18)
(0.991914 0.00969708 2.29009e-18)
(-0.0060835 0.795078 0)
(-0.00810525 0.630869 0)
(0.01561 0.874091 0)
(-0.0182543 0.794591 0)
(-0.00836886 0.625091 0)
(0.111839 0.191563 2.52174e-19)
(0.168349 0.168814 0)
(0.993537 -0.00838177 0)
(0.954411 -0.00652013 0)
(0.771894 0.0458191 0)
(0.708086 0.0563827 0)
(0.662449 -0.0301387 0)
(0.957372 -0.0104818 0)
(0.623717 0.0737039 0)
(0.450001 -0.0151257 1.66472e-18)
(-0.0366317 2.86397 7.63211e-19)
(0.0421563 2.9093 0)
(0.0545657 2.88487 0)
(-0.00439675 2.69901 0)
(-0.013351 2.98511 9.38609e-19)
(-0.0180268 2.89513 0)
(-0.0154217 2.98809 -2.8994e-18)
(-0.0133574 2.92517 9.9084e-19)
(0.067595 1.26212 0)
(0.035404 1.34021 0)
(-0.0240006 2.06785 -1.34868e-21)
(-0.0393095 2.01491 0)
(-0.011322 1.82447 0)
(0.937872 -0.0077296 0)
(0.856201 -0.0094127 0)
(0.863457 0.00642196 0)
(0.949104 -0.00798423 0)
(0.883584 -0.00818936 0)
(0.515426 1.13053 -2.69723e-19)
(0.565017 1.18253 0)
(0.366998 0.880251 3.85138e-20)
(0.309314 0.739394 0)
(0.915844 1.06518 -1.21794e-19)
(1.02587 0.866683 2.39423e-19)
(0.370461 1.37458 0)
(0.533185 1.34477 0)
(0.546053 1.29655 0)
(0.113978 0.181267 -3.25414e-19)
(0.377863 0.212239 0)
(0.343236 0.103267 2.20635e-19)
(0.996456 0.921972 0)
(1.06045 0.77032 0)
(1.08537 0.710967 -1.67481e-19)
(1.11138 0.612303 0)
(1.15581 0.39595 5.43018e-20)
(0.957459 -0.0088134 0)
(0.962351 -0.0101323 0)
(0.901447 -0.00798226 0)
(0.984166 -0.00918021 0)
(0.974635 -0.00940718 0)
(0.937044 -0.00635901 0)
(1.00018 0.00233823 0)
(1.00091 0.00139309 0)
(0.999912 0.00085549 0)
(0.033346 2.06171 4.93245e-19)
(0.1214 1.74898 0)
(0.0125713 2.17744 7.85965e-19)
(0.0561673 1.86226 -6.74074e-19)
(0.105366 1.18575 -2.09206e-19)
(0.0462936 1.07232 0)
(0.141242 1.03837 0)
(0.00990131 0.9035 0)
(0.0183593 0.725317 0)
(-0.00572224 2.2214 -1.79082e-21)
(0.0294781 1.99086 0)
(-0.00575633 2.2075 -9.13823e-20)
(0.0294024 1.99388 1.70051e-19)
(0.0063366 0.869031 0)
(0.0143486 0.842735 0)
(0.0202052 0.687834 0)
(-0.00238493 0.804358 0)
(-0.00888847 0.618146 0)
(0.93501 0.00885143 0)
(0.844281 -0.0148068 0)
(0.92529 -0.000403022 0)
(0.839776 -0.0126523 0)
(0.81235 0.00168487 0)
(0.902065 0.0196769 0)
(0.878882 0.0237651 0)
(0.789115 -0.000234916 0)
(0.00582222 3.06492 -9.27245e-21)
(0.0165588 3.05774 0)
(0.0146733 2.96907 0)
(0.00866908 2.87629 0)
(0.925486 3.97048 0)
(1.24021 3.30256 9.21938e-19)
(0.0703069 3.07453 0)
(-0.0282453 2.90545 0)
(0.10039 1.47087 0)
(0.0332511 1.86596 0)
(0.0280001 1.72363 0)
(-0.0536287 2.53303 1.93892e-20)
(-0.0398893 2.35804 0)
(-0.0880958 2.46689 0)
(0.0283838 1.95104 2.77358e-21)
(-0.0157627 2.15909 6.21936e-20)
(-0.0129033 2.14503 6.09079e-20)
(0.0207259 1.90795 0)
(0.49102 0.120167 5.90132e-19)
(0.388986 0.00422405 -5.79765e-19)
(0.260571 1.57279 0)
(0.268033 0.726742 -3.31217e-19)
(0.177503 1.65778 -1.11604e-18)
(0.226809 1.19399 1.11887e-18)
(0.902263 0.00653692 0)
(0.96752 0.0110149 0)
(0.974621 0.0107739 0)
(0.923452 0.00651122 0)
(-0.0150095 0.809338 0)
(-0.00529019 0.802114 0)
(-0.00946683 0.626738 0)
(0.265864 0.215406 7.09748e-19)
(0.220364 0.201271 -8.40067e-19)
(0.230037 0.160027 0)
(1.07851 0.0804564 3.412e-20)
(1.06036 0.0355079 0)
(1.00046 0.0373201 0)
(0.897841 -0.0082356 0)
(0.517614 0.0967742 0)
(0.55472 0.0781521 -2.66295e-18)
(0.412733 -0.00193837 9.98233e-19)
(0.00914071 2.98162 8.06613e-19)
(-0.0322439 2.86642 4.77915e-20)
(0.0036399 3.05028 -1.9558e-20)
(0.0201187 3.04336 6.94125e-19)
(-0.0149952 2.99656 3.24645e-20)
(-0.0129497 2.94943 -1.30491e-22)
(-0.0172788 3.01197 -5.97882e-19)
(0.0148506 3.02388 4.3302e-19)
(0.0073683 3.03686 -6.88003e-19)
(0.932425 -0.00180764 0)
(0.938445 -0.00382325 0)
(0.844114 -0.00900819 0)
(0.956747 0.0116835 0)
(0.943102 0.0129131 0)
(0.881807 0.00615234 0)
(0.918301 0.0161692 0)
(0.926668 0.014609 0)
(0.838764 0.00408542 0)
(0.719234 1.41006 -2.92842e-21)
(0.753033 1.5195 0)
(0.188248 0.325608 7.89794e-20)
(0.217202 0.655502 6.375e-19)
(0.25877 0.716975 -3.69501e-19)
(0.265372 0.533773 7.35989e-19)
(0.333245 0.78563 1.70312e-18)
(0.131743 0.22075 3.94333e-19)
(0.424167 0.187338 8.29115e-19)
(0.402782 0.203758 2.15608e-19)
(0.354994 0.0847183 4.11737e-19)
(1.1461 0.454413 -1.35421e-20)
(1.15893 0.249129 -2.13723e-20)
(0.00450563 2.22384 3.16071e-19)
(0.0498799 1.92441 0)
(0.963125 0.0277316 0)
(0.938179 0.012856 0)
(0.861742 -0.0185917 0)
(0.011272 3.07439 0)
(0.0198704 2.94422 1.28598e-18)
(0.0164445 2.95638 0)
(0.00629999 2.85054 -1.27549e-18)
(0.00633405 3.09195 3.13484e-19)
(0.00706663 3.08225 0)
(0.786221 1.82248 -1.48736e-19)
(1.24788 2.5013 3.72358e-19)
(0.768447 1.96248 -1.20468e-18)
(0.0201077 2.982 -7.06036e-19)
(0.0357976 3.00193 0)
(-0.0339216 2.87851 0)
(-0.00819142 2.19182 -9.31665e-21)
(-0.0120832 2.17285 -1.32539e-19)
(0.0255707 1.97947 -2.87231e-21)
(0.27449 1.3793 1.07939e-18)
(0.224451 0.513031 -7.40133e-19)
(0.0626744 1.9867 8.3251e-19)
(0.136759 1.87541 -9.80777e-19)
(0.180156 1.48844 9.14265e-20)
(0.0059637 3.11816 -1.7635e-18)
(0.0126264 3.11892 1.92747e-18)
(-0.00915482 2.98053 8.73401e-19)
(-0.00385578 2.97733 -8.32878e-19)
(-0.0215359 2.88107 -8.89545e-19)
(0.00848341 3.09887 -2.33538e-18)
(0.00161911 3.10603 2.35051e-18)
(0.273373 0.680339 0)
(0.23637 0.669842 -1.31547e-18)
(0.0961604 0.221573 5.82488e-19)
(0.34806 0.911064 1.17158e-18)
(0.186948 0.264868 -1.80744e-18)
(1.15719 0.16831 9.40256e-20)
(1.16126 0.303362 0)
(1.14371 0.117064 -4.26346e-20)
(-0.00246117 2.23564 -2.46099e-21)
(0.000281426 2.23249 0)
(0.0348925 1.96443 0)
(0.338697 1.28831 -3.89045e-19)
(0.366498 1.12188 -8.39216e-19)
(0.200394 0.361546 1.49753e-18)
(1.00587 -0.0108679 0)
(1.00766 -0.0076543 5.60043e-19)
(0.0516217 1.24895 0)
(0.0101847 1.15461 0)
(1.00222 0.00350588 1.8073e-21)
(1.00365 0.00943952 1.14238e-18)
(-0.0563731 2.53861 -2.41597e-20)
(-0.0432955 2.56219 0)
(0.0360718 3.17909 4.83915e-19)
(0.395641 3.49249 0)
(1.14228 0.652639 -9.39614e-20)
(1.01291 0.0130664 -2.13489e-21)
(1.02125 -0.0104145 0)
(1.00168 9.73929e-05 6.86897e-23)
(0.0986751 1.35411 0)
(0.148932 2.58055 0)
(0.0182084 1.29957 0)
(-0.000329616 2.6316 9.42574e-20)
(-0.0239236 2.58534 6.51707e-20)
(1.0023 0.0276996 2.47543e-21)
(1.06145 0.00334427 0)
(1.09439 0.0225436 0)
(0.0135723 1.88535 0)
(-0.0296326 2.58081 0)
(0.0350718 1.26553 0)
(0.290038 1.46779 -1.09507e-19)
(1.01126 -0.00965944 0)
(1.00939 -0.014936 0)
(1.00234 0.000696074 7.15215e-19)
(1.00547 -0.00483983 -8.41123e-19)
(1.00119 -0.000988951 0)
(0.0610456 1.57456 0)
(0.0722129 1.35607 0)
(0.0623888 1.49795 0)
(0.0416603 1.24736 0)
(0.0206702 1.16735 0)
(0.00118078 1.12663 0)
(1.03437 -0.00650067 0)
(1.02068 0.0157009 -9.2004e-22)
(0.796901 1.26479 1.9997e-19)
(1.00227 0.000248252 -7.14397e-19)
(1.00406 0.00524466 8.3408e-19)
(1.00118 0.00205739 0)
(1.01286 0.0102611 7.1006e-19)
(1.00802 0.00827394 -8.58991e-19)
(1.00859 0.0146651 0)
(-0.0361558 2.59945 0)
(-0.0387878 2.57466 5.28181e-20)
(-0.0372427 2.58784 -3.5667e-20)
(1.22111 0.252255 7.37818e-19)
(1.15455 0.0805559 0)
(0.0445658 3.07776 -1.0322e-18)
(0.0656932 2.85382 -7.48e-20)
(0.142606 3.19358 1.56459e-18)
(0.137404 3.22232 -2.47875e-19)
(0.136099 3.23511 0)
(0.0194579 3.13761 2.70107e-19)
(0.0766243 3.16064 1.01962e-18)
(0.0693641 3.18666 -5.08188e-19)
(0.0226153 3.12944 0)
(0.651532 0.298514 0)
(0.573598 0.345952 0)
(1.11125 0.685914 2.44433e-19)
(1.10728 0.814096 -2.64017e-19)
(1.17072 0.571773 0)
(1.20087 0.5098 0)
(1.01616 0.0132961 -1.3245e-18)
(1.015 0.014264 1.66268e-18)
(1.02517 -0.00998507 0)
(1.0232 -0.0119989 0)
(1.00647 0.0025621 0)
(1.01043 0.00368661 0)
(1.00462 0.00181667 0)
(1.00982 0.00615949 0)
(1.0078 0.00596116 0)
(1.00452 0.00461606 0)
(0.0879798 1.35047 0)
(0.081459 1.32504 0)
(0.118994 1.38677 0)
(0.129932 1.39936 0)
(0.146883 2.60471 0)
(0.187252 2.67097 -4.76844e-19)
(0.100954 2.66267 0)
(0.0881981 2.66594 2.50216e-19)
(0.0391279 2.68813 -2.39165e-19)
(0.0312265 1.31627 0)
(0.0216476 1.23998 0)
(0.0367252 1.32267 0)
(0.0326845 1.26404 0)
(-0.00241069 1.98862 -5.37468e-20)
(-0.0250017 2.61319 5.27125e-20)
(-0.0125545 2.67453 9.27602e-20)
(-0.0204331 2.68718 0)
(-0.0289204 2.61762 -1.52924e-19)
(-0.0277753 2.61066 -9.04714e-20)
(0.00801152 1.98849 4.21635e-20)
(-0.0154032 2.41295 -7.07117e-20)
(-0.018499 2.43103 -1.05176e-19)
(1.01132 0.0359076 1.34665e-18)
(1.00784 0.0166538 -1.66626e-18)
(1.00359 0.0419186 -1.34957e-18)
(0.982441 0.0217594 1.71724e-18)
(1.0626 0.00712428 0)
(1.04811 -0.0089526 0)
(1.09115 0.0327933 0)
(1.07233 0.0113804 0)
(1.07001 -0.00148397 0)
(1.13628 0.0772009 0)
(1.10785 0.0413047 0)
(1.11049 0.0292025 0)
(-0.0641955 2.45851 -8.85084e-21)
(0.0168781 2.10519 0)
(-0.0358535 2.28611 0)
(-0.0316992 2.59979 2.61332e-20)
(-0.0275381 2.60993 -1.27157e-21)
(0.0275101 1.64908 6.16671e-20)
(0.0397986 1.59655 -6.23041e-20)
(0.0417655 1.40842 0)
(0.0453928 1.42027 0)
(0.0389149 1.42657 0)
(0.0311605 1.2868 0)
(0.0138604 1.18457 0)
(0.378753 1.48251 1.60155e-19)
(0.417365 1.48789 1.08077e-19)
(0.596762 2.449 -2.5228e-19)
(0.403235 2.54465 7.50462e-19)
(0.354331 2.06762 9.24776e-20)
(1.02096 -0.00824346 0)
(1.01545 -0.00981436 0)
(1.01488 -0.0155385 0)
(1.00746 -0.00121209 0)
(1.0049 -0.00097347 0)
(1.00776 -0.00477528 0)
(1.00924 -0.00373266 0)
(1.01414 -0.00451555 0)
(1.02138 0.0159856 1.29774e-18)
(1.01812 0.0157409 -1.66369e-18)
(1.02185 0.0179344 -1.3065e-18)
(1.01974 0.0165337 1.6395e-18)
(0.764358 1.31314 0)
(0.699781 1.3662 1.7056e-19)
(0.872706 1.20988 3.46607e-20)
(0.915136 1.16393 -4.60948e-20)
(1.15583 2.60843 4.0664e-19)
(0.808277 0.102635 6.53882e-19)
(1.15681 0.09951 0)
(1.20066 0.181179 -5.92515e-19)
(1.1842 0.145889 -2.5063e-20)
(1.00419 0.142974 0)
(0.137595 2.96161 6.18132e-19)
(0.114637 2.86753 -1.30348e-18)
(0.0253387 2.37127 8.79407e-19)
(0.0921388 -0.00853184 -3.96189e-19)
(0.340607 3.42145 -1.72321e-19)
(0.19521 3.31384 0)
(0.237829 3.35616 2.2442e-19)
(0.246641 3.03494 -1.9964e-18)
(0.340961 3.19409 0)
(0.00655296 3.12077 5.18486e-20)
(0.0176569 3.12943 -6.04666e-19)
(0.0153397 3.12551 8.89969e-19)
(0.0355534 3.13969 0)
(0.0337711 3.15077 0)
(1.21518 2.60812 0)
(0.534144 0.839261 -5.77188e-19)
(1.03594 0.988328 4.6237e-20)
(0.972482 1.06362 0)
(0.821201 0.965117 -1.43374e-19)
(1.05904 0.878184 2.91524e-20)
(0.36881 0.402369 -1.01783e-18)
(0.69714 0.322078 -2.24615e-20)
(0.664278 0.240293 4.67495e-19)
(0.59071 0.377541 3.45079e-20)
(0.5077 0.351164 -1.38926e-18)
(0.666087 0.340961 0)
(0.702783 0.42637 7.93404e-19)
(0.710656 0.422567 0)
(0.625446 0.369523 0)
(0.600819 0.294406 0)
(0.795813 0.616133 4.7933e-19)
(1.21868 0.275391 -6.24169e-19)
(1.21242 0.414446 0)
(1.22427 0.356263 0)
(0.747992 0.188914 6.95638e-19)
(0.842234 0.535771 -4.34751e-19)
(0.743359 0.50974 7.71576e-19)
(0.945546 0.422897 -8.5842e-19)
(1.01978 0.0146246 8.92261e-19)
(1.01789 0.0141937 -8.97331e-19)
(1.01594 0.0155987 0)
(1.03583 -0.00608772 0)
(1.02952 -0.00864597 -8.43028e-19)
(1.02748 -0.0121659 8.34825e-19)
(1.02511 0.00965114 0)
(1.02367 0.0133159 0)
(1.01141 0.00404197 0)
(1.01429 0.00896292 0)
(1.01511 0.00392516 0)
(1.01421 0.00273034 0)
(0.0583858 1.33367 0)
(0.0625997 1.29455 0)
(0.144019 1.35843 -6.1539e-20)
(0.267276 1.46476 5.21302e-20)
(0.15916 1.43547 1.05319e-19)
(0.189294 1.44369 -1.74176e-19)
(0.161531 1.38294 0)
(0.130544 1.59055 -1.41047e-19)
(0.114946 1.56131 0)
(0.354029 2.02113 -1.34427e-19)
(0.348415 2.35355 6.95129e-19)
(0.187519 1.44485 1.22965e-19)
(0.261109 1.37873 -6.96297e-21)
(0.199843 1.36374 5.65102e-21)
(0.27356 1.32002 -1.72581e-19)
(0.242028 1.57479 0)
(0.261757 1.6157 1.66317e-19)
(0.0339987 2.27305 -5.91315e-20)
(0.0421721 2.67823 0)
(0.0657609 2.41078 2.00658e-19)
(0.0592153 2.43246 0)
(0.0707407 2.67919 -2.76881e-19)
(0.0501305 2.7072 0)
(0.0265313 1.40493 -4.39787e-20)
(0.0344864 1.45653 0)
(0.0327471 1.373 0)
(0.024028 1.37663 4.96226e-20)
(-0.00250169 2.66052 -1.99718e-20)
(0.0283798 2.70633 2.78685e-19)
(0.00975106 2.72923 1.9619e-21)
(-0.00410555 1.83722 5.3891e-20)
(-0.0113934 1.67999 2.3625e-20)
(0.0157458 1.2925 0)
(-0.00118451 1.2147 0)
(0.0475635 1.56557 6.62373e-20)
(0.0292394 1.43867 6.29143e-20)
(0.0364685 1.50505 -7.82398e-20)
(0.0397924 1.59066 0)
(-0.0387113 2.28245 -5.00967e-20)
(-0.0428004 2.55226 2.24799e-20)
(-0.0214987 2.45135 -1.66558e-20)
(-0.01976 1.85273 -6.52488e-20)
(-0.0348533 2.50287 -2.35433e-20)
(-0.0279629 2.44834 1.07923e-19)
(1.01984 0.0207071 -8.87876e-19)
(1.0161 0.0260926 8.90815e-19)
(1.01526 0.0162546 0)
(1.01133 0.0668993 1.25108e-18)
(0.991923 0.0558997 -1.39826e-18)
(0.95336 0.0423689 1.56239e-18)
(1.01488 0.102736 -1.67106e-19)
(1.04202 -0.00613252 0)
(1.05012 -0.00197298 8.07039e-19)
(1.03839 -0.0101253 -8.08151e-19)
(1.06967 0.0403059 -4.82695e-20)
(1.06333 0.0220889 4.15217e-19)
(1.06434 0.0530793 0)
(1.0512 0.0480829 -1.48908e-19)
(1.0333 0.0399315 0)
(1.02615 0.0362779 0)
(1.02781 0.0126583 0)
(1.02437 0.0155164 0)
(1.03961 0.0303722 3.06428e-19)
(1.03942 0.0257885 -6.75362e-19)
(1.0502 0.0321003 -3.25364e-19)
(1.04773 0.0320965 -3.57838e-19)
(1.06862 0.0616359 7.03515e-19)
(1.09368 0.0490818 0)
(1.10151 0.0915936 0)
(-0.0450264 2.27559 -4.73738e-20)
(-0.00821857 2.07753 -1.03634e-20)
(-0.010771 2.05133 0)
(-0.0451515 2.45717 4.7699e-20)
(-0.0242808 2.41854 1.88283e-20)
(-0.0585409 2.45607 -1.57386e-20)
(-0.0279775 2.62224 7.91615e-20)
(-0.0374331 2.56285 -5.95724e-21)
(-0.0308744 2.51821 2.40209e-20)
(-0.0242733 2.61554 -3.66974e-20)
(-0.0290669 2.61644 4.57416e-20)
(0.0356308 1.53581 2.43679e-22)
(0.0180321 1.67348 6.75264e-20)
(0.367784 1.42275 -5.50858e-20)
(0.365982 1.36696 1.06868e-19)
(0.646583 1.41292 -1.649e-19)
(0.514734 1.47732 -1.04879e-19)
(0.567614 1.44962 0)
(0.592263 2.42466 2.25134e-19)
(0.659219 2.41661 3.55923e-19)
(0.411227 2.51889 8.35655e-20)
(0.405088 2.54617 -7.0191e-19)
(0.513351 2.49086 6.7149e-19)
(0.551921 2.46273 0)
(0.489157 2.51882 -5.97275e-19)
(0.249319 2.59511 1.27032e-18)
(0.354148 2.56795 -8.26516e-20)
(0.285228 2.65688 -1.72883e-18)
(0.942903 2.37823 7.93474e-19)
(0.834895 2.38157 0)
(1.01092 0.000381845 2.90675e-20)
(1.0152 -0.00554394 -2.36027e-20)
(1.01764 -0.00366413 -4.31357e-19)
(1.01489 -0.000990162 4.33275e-19)
(1.01229 0.00101032 0)
(0.634363 1.2817 0)
(0.652055 1.17746 0)
(0.754941 1.0853 0)
(0.644071 1.14303 0)
(1.18544 2.62288 5.90129e-20)
(1.07345 2.36677 0)
(0.837148 2.18941 4.59044e-21)
(0.825241 2.44824 0)
(0.921652 2.5391 -4.92279e-19)
(0.95695 2.4953 3.27707e-19)
(0.816938 0.154239 0)
(0.785042 0.128991 1.78572e-19)
(0.92529 0.137408 1.0397e-18)
(0.840049 0.133532 -3.89527e-19)
(0.818629 0.0758466 -1.19281e-18)
(1.07609 0.22244 -1.03547e-18)
(0.996963 0.280634 -1.52338e-20)
(0.922139 0.277775 9.70701e-19)
(1.00546 0.210955 8.14946e-19)
(0.953111 0.179787 -1.38753e-18)
(0.918108 0.180576 1.73305e-19)
(0.951293 0.240038 -3.73781e-19)
(0.930136 0.202664 0)
(0.994325 0.177273 6.8565e-19)
(1.04513 0.176045 0)
(1.04466 0.202214 0)
(1.10401 0.110159 3.30358e-19)
(1.07022 0.163943 -1.38272e-20)
(1.07021 0.224254 -1.79976e-19)
(1.10023 0.191189 0)
(1.02295 0.0436807 6.89484e-19)
(1.04096 0.0563615 8.61644e-19)
(1.03407 0.0418386 -6.83721e-19)
(1.04153 0.0625312 -5.77565e-19)
(1.0181 0.0700667 -8.80133e-19)
(0.989036 0.149887 0)
(0.998737 0.0992676 0)
(0.969297 0.0641458 -5.5609e-19)
(0.920732 0.086206 2.18198e-19)
(1.03713 0.0985827 7.98634e-19)
(1.06761 0.113282 -9.51554e-19)
(1.07038 0.144868 8.48399e-19)
(1.02969 0.136263 0)
(1.07332 0.103809 0)
(1.05545 0.08545 -3.86534e-19)
(1.04416 0.0919538 -6.54598e-19)
(0.577757 1.07629 1.71484e-19)
(0.612065 1.41418 -7.37682e-20)
(1.15608 2.74196 -2.71187e-19)
(1.22301 3.08263 1.06225e-20)
(1.24827 2.72265 -2.28615e-19)
(1.27857 2.70661 1.27039e-20)
(1.20639 2.34572 -1.00562e-20)
(1.2101 2.9864 -1.30424e-19)
(1.22934 2.95143 2.93035e-19)
(1.21414 3.23618 -1.28183e-19)
(1.37525 2.96769 1.77295e-19)
(1.36593 2.88571 0)
(0.539385 0.847157 -5.47275e-20)
(0.13846 1.25779 6.07601e-19)
(0.53161 0.459362 6.56857e-19)
(0.367958 0.210601 7.26637e-19)
(0.529485 0.38524 7.8406e-19)
(0.544298 0.478237 -1.2744e-18)
(0.546337 0.481611 1.04068e-18)
(0.497349 0.40697 -3.96183e-19)
(0.422032 0.341871 8.98604e-19)
(0.751121 0.247913 -3.98362e-19)
(0.715757 0.28259 0)
(0.703358 0.207911 9.69656e-21)
(0.728788 0.514027 4.18089e-19)
(0.699588 0.483169 -1.52304e-18)
(0.614533 0.472493 1.60967e-20)
(0.625343 0.458008 0)
(0.670034 0.7329 4.41841e-19)
(0.821485 0.771525 4.65511e-19)
(0.746321 0.853622 -5.42842e-19)
(0.862977 0.803948 -1.88143e-19)
(0.896125 0.848503 -5.0023e-20)
(0.904292 0.849502 5.12206e-20)
(0.836325 0.643698 -7.95224e-19)
(0.913877 0.70035 1.74752e-19)
(0.970529 0.714936 0)
(0.961316 0.691425 -2.42369e-19)
(1.02292 0.319374 2.50621e-19)
(1.13536 0.289007 3.59148e-19)
(1.06282 0.258476 4.23462e-19)
(1.00879 0.354679 -5.0087e-19)
(1.04836 0.420735 0)
(1.10032 0.40511 0)
(0.910234 0.350005 5.7033e-21)
(0.84144 0.282965 0)
(0.871261 0.275794 4.5461e-19)
(0.905299 0.283531 -5.15245e-21)
(0.937493 0.425914 2.39612e-18)
(0.893554 0.487146 6.19455e-19)
(0.898256 0.450614 -6.51821e-19)
(0.819059 0.433671 6.98407e-19)
(0.801605 0.429749 4.16162e-19)
(0.7722 0.416353 -4.09e-19)
(1.02736 -0.000416062 7.19357e-19)
(1.02001 -0.00017178 0)
(1.01849 0.000774872 4.68509e-19)
(1.02159 -0.0019973 -1.06151e-18)
(1.02224 0.00414675 5.15711e-19)
(1.02042 0.0110292 -1.08028e-18)
(1.0214 0.0104251 0)
(1.02075 0.0106792 -2.24923e-19)
(1.016 0.00758452 5.64299e-19)
(1.01677 0.0103191 -2.81475e-19)
(1.01746 0.009665 2.07374e-19)
(0.0307388 1.31006 0)
(0.0367221 1.34315 0)
(0.0404226 1.31045 0)
(0.0471327 1.27518 0)
(0.0702992 1.37063 9.45946e-20)
(0.0774137 1.34356 -2.06472e-20)
(0.109604 1.49893 -5.09109e-20)
(0.0930701 1.34631 3.26935e-20)
(0.033287 1.44218 -9.0569e-20)
(0.0375421 1.43434 7.02158e-20)
(0.0618265 1.35285 -5.83205e-21)
(0.0546198 1.3538 -5.05624e-20)
(0.0485659 1.33158 -7.7618e-21)
(0.0400114 1.35346 -1.04243e-20)
(0.109081 2.38137 -2.21849e-19)
(0.0965959 2.4258 0)
(0.173992 2.05471 1.37724e-19)
(0.111818 1.70875 7.12239e-20)
(0.232745 2.04811 -1.11848e-19)
(0.207721 2.44263 0)
(0.267828 2.3937 -6.84628e-19)
(0.306774 2.39158 4.85417e-19)
(0.234666 2.00707 -3.12394e-19)
(0.155619 2.17058 1.99712e-19)
(0.146365 2.28603 0)
(0.0150349 1.87919 -9.77358e-20)
(-0.00670796 2.41015 -1.64495e-19)
(-5.51675e-05 2.16189 0)
(0.00985419 2.4689 -1.40272e-20)
(0.024178 2.31408 6.01617e-20)
(0.019991 1.39149 7.67985e-21)
(0.0132403 1.37861 -1.25925e-19)
(0.0126966 1.38308 3.33601e-20)
(0.0182198 1.3814 4.27382e-20)
(0.0246817 1.40915 0)
(0.0110985 1.36511 0)
(0.0128017 1.28012 5.05103e-20)
(0.00795395 1.35876 -1.74764e-20)
(0.00849637 1.35314 0)
(0.0171942 1.27589 3.30603e-20)
(0.004773 1.18458 -6.88403e-20)
(1.03984 0.0108791 0)
(1.04621 0.00720009 -7.57155e-20)
(1.03868 0.0204578 -5.44764e-19)
(1.04782 0.019289 0)
(1.0512 0.0193515 0)
(1.03647 0.0108375 -6.63668e-21)
(1.03098 0.0106333 8.73262e-19)
(1.03199 0.0157992 1.06019e-18)
(1.02598 0.0197637 0)
(1.02326 0.0202127 0)
(1.03524 0.0240965 5.43722e-19)
(1.02633 0.0254597 0)
(1.02464 0.0254997 0)
(-0.0377579 2.02582 0)
(0.00760711 1.67055 -4.89484e-21)
(-0.019966 1.7764 -4.00745e-21)
(0.0138461 1.35957 0)
(-0.0103071 1.5624 3.88316e-20)
(0.0156059 1.46853 -2.40854e-20)
(0.0442751 1.39811 0)
(0.392776 1.67202 0)
(0.367997 1.29652 -1.91566e-19)
(0.306022 1.34197 0)
(0.424534 1.29555 1.56429e-19)
(0.467271 1.45214 0)
(0.448606 1.39793 -4.17476e-20)
(1.03482 2.68626 -1.70137e-20)
(0.964523 2.40877 -9.97187e-19)
(0.914226 2.1885 1.14577e-18)
(0.848314 2.37359 2.60492e-19)
(0.846246 2.49694 0)
(0.916354 2.49326 0)
(0.926301 2.37142 0)
(0.904475 2.35798 -1.01272e-18)
(0.689777 2.46559 -4.55817e-19)
(0.801041 2.45618 -1.10669e-19)
(0.811468 2.42975 8.44259e-20)
(0.693984 2.39089 0)
(0.797984 2.38602 0)
(0.756953 2.39875 -3.88321e-19)
(0.768786 2.48713 0)
(0.611486 1.09882 0)
(0.482066 0.928198 -5.67785e-19)
(0.54881 0.963424 -3.6024e-20)
(0.51834 1.05493 0)
(0.518927 1.00486 8.52571e-19)
(0.769977 0.880129 -1.5713e-19)
(0.77994 1.01504 0)
(0.753557 0.973411 2.35692e-19)
(0.640777 1.035 0)
(0.645005 0.943868 0)
(1.16402 2.76295 -2.7408e-19)
(1.14156 2.82671 -1.28629e-19)
(0.931099 2.34749 1.53703e-19)
(0.899015 2.32538 -1.00352e-19)
(1.12881 2.73531 0)
(1.08227 2.70532 1.20789e-19)
(1.0887 2.48657 -3.53146e-19)
(0.982769 2.23372 -3.03295e-20)
(0.495854 1.35571 0)
(0.508755 1.07463 -1.51245e-19)
(0.561438 1.16352 0)
(0.8609 0.216207 0)
(0.792031 0.167934 0)
(0.740228 0.138311 0)
(0.855859 0.220421 -7.15564e-19)
(0.767886 0.209434 4.18377e-19)
(0.935332 0.0731782 -4.50695e-19)
(0.949814 0.118808 0)
(0.928834 0.128806 1.93237e-19)
(0.869685 0.105751 7.74297e-19)
(0.844217 0.0638066 -4.84798e-19)
(1.1616 3.36163 -6.8994e-19)
(1.20917 3.28095 0)
(1.16011 3.38956 -1.43168e-18)
(0.647791 3.55038 1.21457e-18)
(0.87262 3.11775 3.49254e-20)
(0.512947 0.853782 6.507e-19)
(0.430458 0.846937 0)
(0.339919 0.494499 -1.63767e-19)
(0.449378 0.682168 9.36171e-19)
(0.53507 0.465232 -2.26952e-19)
(0.509133 0.517539 2.57481e-19)
(0.661155 0.531845 5.62773e-19)
(0.690759 0.553755 0)
(0.642375 0.614464 0)
(0.600662 0.552036 0)
(0.974847 0.600524 1.28237e-19)
(0.895367 0.536246 -6.0279e-19)
(0.91905 0.56999 4.68234e-19)
(0.955725 0.505114 -4.68198e-19)
(1.05901 0.480027 0)
(1.06616 0.57038 -1.22031e-19)
(0.843035 0.385406 -9.5106e-19)
(0.846722 0.371372 -1.17861e-18)
(0.794907 0.380549 7.41171e-19)
(0.791219 0.350577 -7.55192e-19)
(0.84118 0.306331 -5.91171e-19)
(0.794062 0.305743 7.26339e-19)
(1.02671 0.00545669 -5.53188e-19)
(1.02645 0.00569884 1.12933e-18)
(1.02908 -0.000330475 6.98309e-19)
(1.03329 0.000634634 -8.41108e-19)
(1.03326 0.00814908 0)
(1.03006 0.00871383 -1.36658e-18)
(0.0640187 1.64167 3.90169e-20)
(0.0455682 1.56734 0)
(0.086583 1.69255 2.5761e-19)
(0.095558 1.67391 -2.30982e-19)
(0.0900528 1.51916 9.55462e-20)
(0.088411 1.49903 0)
(0.00455496 1.6868 0)
(-0.00449334 1.49156 -2.03445e-20)
(-0.00865943 1.42826 1.83038e-20)
(-0.00525565 1.55713 5.04582e-22)
(-0.00769387 1.89188 -3.51173e-20)
(-0.0247881 1.94608 1.90599e-20)
(0.495245 1.37312 -3.78784e-19)
(0.489935 1.37657 4.1401e-19)
(0.446121 1.29151 -1.08849e-19)
(0.434975 1.2935 1.34004e-20)
(0.625756 1.29713 0)
(0.544396 1.38428 2.70232e-20)
(0.560711 1.39226 -2.63044e-20)
(0.456379 1.27765 1.04983e-19)
(0.509872 1.23239 0)
(0.562413 1.19771 0)
(0.656694 2.42488 6.6956e-19)
(0.670438 2.46182 1.38569e-18)
(0.715967 2.4737 -9.54306e-19)
(0.615238 2.44973 -2.19534e-19)
(0.562269 2.54156 3.14805e-19)
(0.511713 2.51494 -8.33709e-19)
(0.975502 2.37807 -6.42124e-19)
(1.01163 2.39235 0)
(0.921088 2.16692 -7.39402e-19)
(1.05243 2.6843 0)
(1.05452 2.67091 0)
(0.612996 2.27753 -1.53104e-19)
(1.04209 3.16453 9.74241e-20)
(0.913263 3.03471 9.98058e-22)
(0.282226 0.916793 0)
(0.323845 0.77863 -3.41267e-19)
(0.481444 0.733489 -3.50614e-19)
(0.392295 2.02478 0)
(0.467825 2.78643 -2.43125e-20)
(0.4247 2.55039 0)
(0.684259 0.680382 -9.38508e-19)
(0.76636 0.680498 1.28763e-18)
(0.786497 0.622767 -1.27616e-18)
(0.667439 0.642726 -1.2099e-19)
(0.724081 0.596814 -5.03156e-19)
(1.00413 2.76818 -7.40777e-20)
(1.04091 2.82504 -2.21051e-19)
(0.6415 2.15562 7.27138e-19)
(0.596823 1.71901 -5.14632e-19)
(0.69968 1.91023 -4.70631e-19)
(0.989523 2.45125 -1.20317e-19)
(0.994192 2.44584 3.56886e-19)
(0.661499 1.85141 3.21858e-20)
(0.451365 1.3368 1.73751e-19)
)
;

boundaryField
{
    wall-4
    {
        type            noSlip;
    }
    velocity-inlet-5
    {
        type            fixedValue;
        value           uniform (1 0 0);
    }
    velocity-inlet-6
    {
        type            fixedValue;
        value           uniform (0 3 0);
    }
    pressure-outlet-7
    {
        type            zeroGradient;
    }
    wall-8
    {
        type            noSlip;
    }
    frontAndBackPlanes
    {
        type            empty;
    }
}


// ************************************************************************* //
