/*--------------------------------*- C++ -*----------------------------------*\
| =========                 |                                                 |
| \\      /  F ield         | OpenFOAM: The Open Source CFD Toolbox           |
|  \\    /   O peration     | Version:  4.0                                   |
|   \\  /    A nd           | Web:      www.OpenFOAM.org                      |
|    \\/     M anipulation  |                                                 |
\*---------------------------------------------------------------------------*/
FoamFile
{
    version     2.0;
    format      ascii;
    class       volScalarField;
    location    "47";
    object      p;
}
// * * * * * * * * * * * * * * * * * * * * * * * * * * * * * * * * * * * * * //

dimensions      [0 2 -2 0 0 0 0];

internalField   nonuniform List<scalar> 
918
(
0.569147
1.21471
-0.000507323
0.568408
-0.0116829
1.18232
-0.486995
0.7128
0.549028
-0.0827978
-0.0133575
0.546142
1.0432
0.807235
-1.10423
-0.00336571
0.667029
-0.374543
0.548428
-0.0281326
0.745904
0.555468
0.55849
0.548881
0.616399
0.786944
0.923673
0.0282441
0.00382061
-0.00076455
-0.0111083
-0.0424582
-0.0328741
1.0657
1.11629
1.13886
0.517424
0.356657
-0.339932
-0.419576
-0.411364
-0.530967
0.707932
0.706038
-0.181745
0.71603
0.721385
0.536547
0.548369
0.549317
0.550384
0.549345
0.550766
0.425902
-0.0862844
-0.12119
-0.0626372
-0.0517938
0.0783074
-0.0133698
-0.0153598
-0.0124712
-0.0114072
0.466903
0.541151
0.538318
0.55104
0.560707
1.15345
1.12452
1.1501
1.06703
1.08188
1.02093
0.99283
0.829465
0.850927
0.791601
0.778155
-1.52186
-2.47816
-0.520819
-0.269516
-0.0100528
0.00621699
0.018664
0.661355
0.660611
0.66848
0.677898
1.10618
-0.342902
-0.49219
0.548237
0.547221
0.55532
0.55568
0.552847
0.550926
-0.0235857
-0.0213443
-0.0298425
-0.0301203
-0.0301672
0.734379
0.73322
0.550558
0.547149
0.56579
0.585378
0.579239
0.29536
0.61834
0.630008
0.609983
0.775849
0.771433
0.779683
0.898281
0.860785
0.960963
0.984521
0.0164154
0.00129572
-0.00984535
-0.0154693
-0.0136716
0.513322
0.505238
0.532563
0.520838
0.523296
0.273365
0.140319
0.450053
0.478326
-0.256907
-0.328478
-0.405493
-0.437964
-0.535446
0.642076
0.697869
0.69591
-0.188407
-0.125678
-0.25405
-0.0421578
-0.108648
0.526841
0.533849
0.528194
0.543916
0.538626
0.540228
0.552688
0.549754
0.551275
0.48612
0.588918
0.357453
0.318244
-0.230913
-0.133701
-0.227482
-0.0389282
-0.03374
0.0932095
0.119176
0.0665263
0.0588301
-0.0283212
-0.0200705
-0.0239422
-0.0100543
-0.0135644
0.461356
0.451111
0.480554
0.487824
0.531211
0.532251
0.535567
0.534038
0.943173
0.965836
0.974068
0.94761
-3.49067
-6.54131
0.0534846
0.194135
-0.00512195
-0.00957699
0.00373606
-0.00279757
0.00185896
-0.000485454
0.0162496
0.0137683
0.0191155
0.0218061
0.652272
0.652299
1.01183
1.00737
0.973862
0.916734
0.536497
0.538597
0.544071
0.539587
-0.0138708
-0.0175391
-0.015803
0.723595
0.729845
0.727733
0.257886
0.170881
0.346259
0.375051
0.645269
0.63436
0.643434
0.672388
0.706057
0.991078
1.00878
1.00911
1.01695
1.06211
1.07503
1.0407
0.493417
0.503036
0.49853
0.535688
0.533427
0.534307
0.530115
0.531381
0.528844
-0.0290292
-0.388944
0.539858
0.553556
0.535717
0.540035
0.71321
0.780386
0.678639
0.68806
0.686368
0.0260921
-0.0356336
0.273576
0.240447
0.401461
0.437646
0.414546
0.914358
0.875922
0.925859
0.899254
0.859453
0.885961
-0.427914
-1.66314
-0.926136
0.552469
0.362123
0.450763
0.0389232
0.0173486
0.0232664
0.995643
1.08493
0.636596
0.824791
0.872635
0.744794
0.776285
0.834083
0.755623
0.792087
0.82847
0.810072
0.599566
0.553681
0.557956
0.842778
0.896514
0.148545
0.0947181
0.0388577
0.136655
0.190646
0.165562
1.03327
0.950483
1.02286
0.546764
0.547379
0.00435137
0.00198354
0.551595
0.551795
-0.0061293
0.00609083
0.437296
-0.798062
0.121912
0.539762
0.529976
0.546976
-0.0723754
0.388181
-0.0126839
0.0786311
0.0169272
0.542944
0.477823
0.439213
-0.00054722
-0.00666401
-0.023811
-0.214071
0.544277
0.542429
0.546492
0.547532
0.548173
-0.0171652
-0.00458345
-0.00635301
-0.0242108
-0.021355
-0.0297075
0.511469
0.529323
-0.154792
0.546618
0.548826
0.548636
0.541526
0.547371
0.545305
0.00330119
-0.0057243
-0.0106802
0.244984
0.371547
0.677714
0.775661
0.650545
0.416865
0.164045
0.583007
0.645684
0.554077
0.704425
0.691955
0.710456
0.194254
0.031946
0.195792
0.135997
0.537958
0.536372
0.528376
0.525321
0.541943
0.540124
0.544526
0.541487
0.54439
0.545828
-0.0243836
-0.051546
-0.0639172
-0.138628
0.34368
0.611111
0.279537
0.320552
0.163241
-0.0105991
-0.0105013
-0.0124971
-0.0201177
0.0349272
0.000924657
0.0748484
0.0722887
0.0413051
0.0124664
0.0243953
0.00648647
0.0118649
0.536211
0.534679
0.540992
0.549729
0.487347
0.491038
0.456554
0.476993
0.461984
0.404031
0.438689
0.413851
0.00123855
0.00399991
-0.0010711
-0.00281718
0.00279034
-0.00605864
-0.0118187
-0.0105504
-0.00698218
-0.0132516
-0.0182813
-0.0176044
-0.169091
-0.2799
1.00864
0.939362
0.134382
0.533256
0.539844
0.536455
0.54149
0.544546
0.545391
0.543148
0.539715
0.52985
0.531564
0.528185
0.528876
-0.0821484
-0.22944
-0.0619281
-0.127887
0.147823
0.635136
0.382624
0.309737
0.310571
0.540127
0.957814
0.717446
0.698218
0.731875
-0.340634
0.0297973
-0.281444
0.309514
0.135009
0.680073
0.72995
0.751466
0.698106
0.65167
-0.23036
0.559381
-0.0489811
-0.00186169
0.205064
0.0902666
0.713338
0.675989
0.680941
0.699351
0.718802
0.679556
0.663664
0.660367
0.695322
0.699703
0.508793
0.27819
0.222507
0.189558
0.659827
0.545452
0.597614
0.511647
0.532903
0.535632
0.534185
0.516298
0.523737
0.519327
0.525515
0.528803
0.537922
0.538513
0.533512
0.535775
-0.0233868
-0.0283796
0.000702452
-0.120781
-0.10952
-0.194351
-0.0346204
0.0847551
0.0526858
0.250449
0.331129
0.0599765
-0.0345708
-0.00841408
0.0153657
0.18589
0.24359
0.101448
0.18153
0.179121
0.158611
0.274199
0.270142
0.00379957
-0.00178677
-0.00328113
-0.00435432
0.0473664
0.115542
0.132894
0.0235466
0.0193175
-0.00559459
-0.00574198
0.00360214
-0.000620259
0.00339484
0.0391075
-0.06214
-0.00734732
0.0136204
0.029245
0.0236654
0.0121001
0.528982
0.531085
0.530902
0.538905
0.556598
0.572942
0.529221
0.509794
0.500426
0.503233
0.476705
0.487256
0.482534
0.495551
0.516744
0.525872
0.523775
0.526543
0.509423
0.511121
0.497973
0.501241
0.477952
0.458717
0.446472
-0.0131938
0.0130781
0.0270854
-0.0238276
0.00354884
-0.00891512
0.0131514
0.0341246
0.0180797
0.00910457
0.000304554
-0.00661185
-0.00135018
-0.0643033
0.0246082
-0.169312
-0.207493
-0.282858
0.910435
1.01752
0.831797
0.597857
0.611958
0.859898
0.942267
0.568935
0.742484
0.770974
0.615723
0.857133
0.538335
0.537883
0.535426
0.534952
0.536288
0.00933257
0.116659
0.113063
0.180321
0.293434
0.415335
0.324844
0.196091
0.326778
0.316568
0.626156
0.641904
0.598748
0.621516
0.623583
0.442773
0.518096
0.571506
0.530052
0.577229
0.595972
0.555994
0.584689
0.538466
0.491333
0.490655
0.44076
0.453078
0.431873
0.416029
0.528515
0.50497
0.515707
0.505948
0.52702
0.549782
0.54456
0.579854
0.590859
0.510929
0.46764
0.474779
0.507827
0.46825
0.483435
0.49834
0.243187
0.171793
0.211816
-0.0790358
0.0042884
-0.0718048
-0.102937
0.0148226
0.314704
-0.424213
-0.486083
-1.04016
0.50543
1.03039
0.666055
0.609811
0.71638
0.695658
0.698408
0.724898
0.725564
0.651461
0.667874
0.673421
0.629602
0.651832
0.680676
0.675189
0.544037
0.394159
0.387656
0.346346
0.221938
0.261404
0.462292
0.377001
0.302849
0.317048
0.478724
0.371248
0.437411
0.464903
0.385451
0.357738
0.552929
0.623518
0.613103
0.58601
0.506379
0.518557
0.547341
0.581242
0.60603
0.642036
0.524924
0.530923
0.532192
0.529697
0.526853
0.529776
0.529996
0.532614
0.533336
0.53646
0.535424
-0.0162363
-0.00518284
-0.016841
-0.0265765
0.00323162
0.000276829
0.0488303
0.0335377
0.0153357
0.0216394
-0.00398919
-0.00428208
-0.00157249
0.005906
0.12762
0.127591
0.108288
0.0766975
0.25484
0.392631
0.456905
0.335307
0.244906
0.270479
0.282826
0.0112529
0.0384068
0.0283676
0.0637178
0.0607424
-0.00605089
-0.00944707
-0.00797092
-0.00128601
0.0102695
-0.0080127
-0.0135218
-0.00462616
-0.00770095
-0.00875534
-0.0148545
0.512378
0.506055
0.506435
0.501114
0.50019
0.51308
0.517414
0.519928
0.525299
0.527202
0.517909
0.523107
0.526674
0.0130094
-0.016208
-0.0247136
-0.00194991
-0.0103749
-0.00634942
-0.00643179
0.1371
0.0667044
0.0634626
0.0218809
-0.109727
-0.0525029
0.508348
0.510186
0.513856
0.733443
0.586599
0.512181
0.615291
0.71419
0.285278
0.478011
0.313894
0.897705
0.788428
0.934395
0.542073
0.250312
0.413247
0.469663
0.261013
0.338742
0.332885
0.232575
0.261384
0.287926
0.3921
0.283218
0.267179
0.0179328
0.212979
0.327954
0.314586
0.439731
0.507016
0.266166
0.19336
0.160966
0.617722
0.635554
0.654357
0.625765
0.647709
0.589291
0.577026
0.596053
0.605177
0.60073
-0.766077
-0.474762
-1.38878
-0.680899
-0.238362
0.537779
0.505004
0.778555
0.660199
0.711001
0.696394
0.664812
0.630378
0.6463
0.675074
0.374132
0.479847
0.456929
0.459263
0.352185
0.295568
0.592687
0.584878
0.62369
0.646312
0.614283
0.647526
0.522786
0.522487
0.521965
0.518596
0.516943
0.519062
0.0846529
0.0518744
0.0964728
0.0760189
0.0513973
0.0355904
0.0236306
0.0129834
-0.000712174
-0.00331516
0.0168085
0.0225698
0.171673
0.109514
0.0385811
0.0656411
0.00584523
-0.0637403
-0.0823559
0.0211543
0.115444
0.116297
0.421761
0.660835
0.480511
0.650282
0.515695
0.547143
0.503485
0.498296
0.524718
0.410249
0.484369
0.305481
-0.232345
-0.111665
0.763705
0.823172
0.598405
0.473747
0.182874
0.306149
0.568539
0.4919
0.533321
0.605789
0.594998
0.0281984
0.0531732
0.397573
0.599396
0.256295
0.188881
0.205916
0.370512
0.32406
)
;

boundaryField
{
    wall-4
    {
        type            zeroGradient;
    }
    velocity-inlet-5
    {
        type            zeroGradient;
    }
    velocity-inlet-6
    {
        type            zeroGradient;
    }
    pressure-outlet-7
    {
        type            fixedValue;
        value           uniform 0;
    }
    wall-8
    {
        type            zeroGradient;
    }
    frontAndBackPlanes
    {
        type            empty;
    }
}


// ************************************************************************* //
