/*--------------------------------*- C++ -*----------------------------------*\
| =========                 |                                                 |
| \\      /  F ield         | OpenFOAM: The Open Source CFD Toolbox           |
|  \\    /   O peration     | Version:  4.0                                   |
|   \\  /    A nd           | Web:      www.OpenFOAM.org                      |
|    \\/     M anipulation  |                                                 |
\*---------------------------------------------------------------------------*/
FoamFile
{
    version     2.0;
    format      ascii;
    class       surfaceScalarField;
    location    "47";
    object      phi;
}
// * * * * * * * * * * * * * * * * * * * * * * * * * * * * * * * * * * * * * //

dimensions      [0 3 -1 0 0 0 0];

internalField   nonuniform List<scalar> 
1300
(
3.75095
5.62643
-3.20405
3.75095
-7.73604
5.62643
-4.37232
4.37232
-0.709872
0.709872
1.87646
1.87449
-2.9452
2.9452
-2.43049
2.43049
-2.54202
2.54202
-5.24638
5.24638
-5.06837
5.06837
4.65722
-4.65722
-6.26831
6.26831
-1.05589
1.05589
-3.83945
3.83945
3.16873
-3.16873
-2.25358
2.25358
-0.150235
0.150235
-0.553131
4.30408
3.19782
3.19782
-2.01203
2.01203
-4.86599
4.86599
6.21745
-6.21745
5.22119
-5.22119
-2.01714
-2.38625
1.82471
-11.5931
-5.91133
-5.91133
-8.44022
8.44022
-2.81379
2.81264
2.94515
-2.94515
-1.86702
1.86702
-4.29406
-0.0782661
-4.29406
4.37768
-0.00536205
4.37768
-0.78869
0.0788173
-0.78869
3.94864
-3.94864
0.597363
0.112509
0.597363
3.06522
-3.06522
-1.87718
3.75364
1.87378
-1.87179
6.17587
-1.87917
3.75366
-5.9717
5.9717
-3.15545
0.21025
-3.15545
2.76308
0.182112
2.76308
-6.80213
6.80213
-2.47537
0.0448827
-2.47537
2.39476
0.0357337
2.39476
2.87215
-2.87215
-2.64829
0.106274
-2.64829
2.42847
0.113547
2.42847
0.35367
5.27276
-5.9801
8.79274
-5.27276
0.0263785
5.20819
0.0381895
5.20819
-5.10564
0.037269
-5.10564
5.01328
0.0550862
5.01328
4.73227
-0.0750533
4.73227
-4.78302
0.125801
-4.78302
-3.39913
-4.0566
-6.42141
0.153097
-6.42141
-1.09952
0.0436265
-1.09952
0.996898
0.0589965
0.996898
-3.6517
3.6517
-4.14675
0.307304
-4.14675
3.12257
0.0461569
3.12257
1.86902
1.88193
5.61998
-5.61998
2.45125
-2.25913
0.00555025
-2.25913
-2.26651
-2.95468
2.26651
-0.0129266
-0.380776
0.230541
-0.380776
3.16013
0.037694
3.16013
2.2725
0.155972
-2.2725
0.260469
3.24922
-3.24922
1.34416
0.66787
1.34416
-5.56805
5.56805
4.95464
0.0586448
-4.95464
0.0886482
6.15615
0.0612971
6.15615
-6.1999
-0.0175548
-6.1999
2.60223
-4.98848
-2.56066
6.08917
0.179139
-6.08917
0.177842
2.91592
0.0292361
2.91592
-2.91864
2.91864
-2.9843
0.0391514
-2.9843
-2.24842
0.381396
-2.24842
1.58308
0.283945
1.58308
-4.18661
-0.107445
-4.18661
-4.29298
0.146233
4.29298
0.0847028
1.1892
-1.1892
-0.890217
0.101528
-0.890217
-4.06235
-0.124259
4.06235
-0.113718
-3.82378
-0.12486
-3.82378
-3.02421
0.0399057
3.02421
0.0410127
3.11321
0.0469135
-3.11321
0.0479915
-1.87089
3.75282
-1.88006
3.75384
-5.59769
-0.374015
-5.59769
6.28052
-0.30882
6.28052
3.51422
0.325222
-3.51422
0.358778
2.62775
0.135337
2.62775
-6.76573
-0.0363981
-6.76573
6.78708
0.0150495
6.78708
2.53445
0.0932931
-2.53445
0.0590791
2.34303
0.051725
2.34303
2.89258
-0.0204298
2.89258
-2.86975
-0.00240156
-2.86975
2.796
-2.796
2.72665
0.0693522
-2.72665
0.078359
-11.1326
11.1151
-0.0349769
-11.0976
5.17322
5.17322
4.14741
0.584856
4.14741
-4.99906
0.216044
-4.99906
2.71071
-5.27137
3.05685
-6.45598
4.68387
-16.2769
4.33145
-8.38805
6.65721
-6.65721
6.54958
0.10763
-6.54958
0.12817
-1.18237
0.0828464
-1.18237
-3.05302
-0.59868
-3.05302
4.29747
-0.645764
4.29747
-3.02757
3.02757
-3.0766
0.0490296
3.0766
0.0459708
2.29369
0.0493407
-2.29369
0.0345572
0.490092
0.107271
-0.490092
0.109317
3.44306
-0.193845
3.44306
-3.05946
-0.189764
-3.05946
-1.26533
0.0829668
1.26533
0.0788261
-5.81524
0.247183
-5.81524
-11.191
0.0933314
-11.1528
-6.10657
-6.10657
2.33365
11.1264
-2.89025
0.0205049
2.89025
0.0256639
2.97412
0.0534503
-2.97412
0.055476
-2.85968
0.0636758
2.85968
0.0589658
-2.63014
0.381718
-2.63014
-1.17585
1.17585
-1.34754
0.171691
1.34754
0.235539
1.42527
-0.236073
1.42527
0.949918
0.0469799
-0.949918
0.0597003
-3.72445
-0.0993255
-3.72445
6.51438
-0.233854
6.51438
-2.95008
-0.109372
2.95008
-0.0575031
-0.0334867
11.1485
-5.13973
0.0340929
5.13973
-11.2098
11.2439
-3.25579
0.625655
3.25579
0.891621
5.29095
0.277102
-5.29095
0.29189
6.73858
0.0485025
-6.73858
0.0813741
-2.57101
-0.482015
-2.57101
-5.03319
-0.564498
5.03319
-0.735725
-11.4724
-0.204818
11.6772
-11.4173
6.02005
0.136101
-6.02005
11.38
-1.11192
-0.0772761
1.11192
0.0639266
1.72767
-0.302402
1.72767
3.62652
-0.183461
-3.62652
-0.097925
-6.67123
-0.0944997
6.67123
-0.156856
-2.1281
-0.442904
2.1281
-0.400431
-4.26691
4.30461
1.90896
-2.45237
-2.53612
-5.40704
1.85151
1.90131
4.30276
-10.2014
-6.07554
-10.0236
7.25643
-6.96454
-9.26179
9.18674
7.76106
-7.88592
-5.78695
5.83292
6.48282
-6.44181
1.87877
1.87487
7.90195
-7.69169
-15.6299
15.2559
7.44605
-7.40117
15.7722
-15.8086
-17.8689
17.9174
-5.70689
5.81316
-6.73272
6.73032
-6.954
6.89649
-2.87995
-3.57603
13.1679
-13.0148
8.4573
-8.45175
-8.58076
8.88806
3.38199
0.922617
3.42891
-1.8823
3.76107
-1.87136
3.78032
2.67102
-5.55098
2.60035
-5.13646
4.2268
4.23051
-4.21387
-1.19317
-5.92062
5.94985
-5.81992
5.87888
9.0205
-9.09876
-1.88521
3.76007
-1.86864
3.76994
-3.4265
-2.36045
3.38034
0.922415
8.11217
5.05571
-8.29131
-1.73226
-7.9967
7.81324
-8.19138
8.00162
-0.432467
5.81671
-5.38424
4.43352
-1.56039
7.3771
5.69604
5.91209
5.86296
-5.58585
1.10159
-6.48583
-6.39718
-2.41498
2.51651
2.34598
-2.23347
6.03706
1.724
5.92335
-5.71871
-2.16721
-5.81804
3.82167
2.01125
3.8707
4.07715
2.40568
4.11705
3.03054
-3.03564
0.0050968
-3.05634
6.08689
0.724429
-5.41679
-4.49437
4.93447
2.96747
5.11659
-5.48747
-2.20422
-5.12869
-9.53646
-6.09348
-10.101
10.0983
5.15759
9.7895
-11.9722
11.8154
4.7545
2.69155
4.79024
-4.88429
-2.51688
-4.82521
11.6125
-2.60104
-9.01143
-10.3284
-7.54049
10.3134
5.45881
10.9799
6.93754
11.0613
4.4274
7.18507
-9.8862
2.34571
-3.86497
-1.84191
-3.78661
3.68075
2.13241
3.7943
-4.21472
-2.518
-4.19422
-4.28952
-2.66448
4.30995
2.42037
-4.40604
-3.78534
4.51542
2.38108
4.04302
-10.1186
4.34503
-7.92106
-9.2264
-3.78838
-9.09823
3.46497
2.62057
-6.08555
-2.086
8.41564
-4.18513
7.22246
-5.14964
-3.30211
-5.11508
-6.81408
-1.76668
-6.66785
-8.85492
8.37291
-9.17697
8.53121
12.5829
-5.67906
-6.90383
-3.96851
-2.4733
3.92052
-0.491617
-3.71065
3.71575
0.0504174
3.83073
4.75335
4.26173
-3.88722
-1.9327
-3.83174
3.83023
2.04866
3.8939
6.78126
2.23924
6.77589
-6.52414
-2.57462
-6.63158
9.03495
-8.65356
2.89718
-2.81422
5.36659
2.63503
-5.17274
-2.82396
6.20197
-3.20555
-2.99642
-12.2134
10.5729
1.64049
-4.8363
-0.402777
-0.252542
-5.48469
-3.7771
5.35889
0.553198
11.1261
7.34899
-5.51288
5.76006
6.16432
6.22297
-0.17421
5.77034
-5.14468
5.31113
-2.49716
-2.81397
5.39038
-5.51464
-1.2412
-5.3915
4.1503
0.408706
1.61853
-1.38799
-1.87343
-0.541552
-1.81373
1.40997
0.936009
1.51724
0.92372
1.59279
-2.9367
0.561863
2.37484
-2.01298
-1.67161
-3.72387
-1.14901
4.87289
5.73425
2.07899
-5.63633
-0.181714
2.61228
-2.55329
-0.729523
-2.99435
2.21091
-2.94043
-3.67939
-1.96281
5.6422
-3.37096
-0.460779
3.31751
0.553186
-3.82591
-2.09471
3.78676
0.330298
-3.12609
6.18864
-3.06255
-5.05879
2.52849
3.55839
4.53974
-4.78895
2.44653
2.34242
-1.23056
4.21732
0.899263
4.35266
-6.78497
4.58075
5.75515
3.13291
-6.08037
0.951676
-5.83329
8.47266
-7.28342
-1.18924
4.12445
4.3482
7.12163
5.46126
-5.72892
12.8505
-1.17718
-6.10624
7.01047
-3.87756
4.7678
-8.64536
-10.2291
4.12282
-9.17617
10.933
-1.7568
-3.62857
-8.34366
12.8047
-1.21199
-11.5927
8.57751
-4.1786
-4.27141
8.45001
-6.77964
6.78829
-1.96289
-4.82539
-10.1087
-5.69994
10.2032
1.61221
-9.83839
12.1841
-2.65332
4.06978
0.720455
4.12151
3.24577
-5.41195
2.16618
3.53387
-5.49676
2.07121
-7.48316
-6.732
12.0956
-5.36359
-10.5204
-9.51724
-1.00314
2.53568
9.64843
-9.47322
7.44657
2.02665
3.30656
0.58734
-3.37592
-0.410698
0.236086
4.53371
-4.7698
4.03038
4.18636
3.32518
1.20853
3.8426
2.10725
-3.86827
-0.325953
-4.15641
1.49193
-1.73604
-3.68521
5.17714
-4.06935
0.38414
-2.74152
-3.50307
6.24459
-4.58343
3.03647
3.15217
5.08512
-4.91243
1.40935
-2.39762
-2.5148
2.66
-4.39604
1.98115
3.19599
4.36223
0.576888
5.88091
6.21468
-8.50148
0.580419
11.2704
-9.53814
2.45751
8.60376
-9.90408
0.386848
-8.71138
1.02055
-5.20568
-5.065
5.09419
-6.86087
-3.55117
6.15624
0.619656
-6.24094
-0.426905
-6.03305
-2.82187
-6.47596
-3.04445
-6.13252
-8.77337
-1.6417
-7.13167
6.7312
-6.67778
-3.42318
7.4135
1.1177
-7.39832
7.32104
-7.48341
7.18101
0.0952051
3.62054
4.35694
1.88364
-2.38998
4.27363
-5.0895
7.32873
-8.61807
3.52858
4.08741
-6.66203
-4.53067
5.0319
4.00305
5.31584
8.90986
-10.392
1.48215
-10.7141
12.0287
-1.3146
-16.4741
5.75999
-7.56424
2.54869
0.34849
2.63154
0.581039
2.49893
-3.07997
-2.23318
-2.15435
-2.39789
-3.4481
5.84599
1.11662
-3.48818
2.37156
-3.56025
4.67687
-0.144743
-3.34344
5.29887
-2.79995
5.64737
-3.70499
1.94237
3.40202
5.74133
-2.33931
4.37924
-1.74421
1.89282
-4.23213
-1.55528
-2.96201
5.09442
-3.28258
3.66672
-0.324627
3.99135
-4.0866
0.881045
-0.761421
3.42493
3.6854
4.29321
-3.08467
2.93534
-4.67955
-1.29679
-4.10266
-0.906676
-0.277134
-3.75884
4.03597
6.02924
-6.30637
-5.21962
9.53527
-4.31566
7.72112
-5.38282
-2.33829
-4.24299
-4.41057
3.86127
1.90907
9.63019
0.237531
-5.62035
-4.90715
-4.01553
3.16259
2.14854
-1.84471
3.4852
2.09725
-0.478721
0.499921
1.01732
1.83401
-1.33409
0.261351
1.57266
-1.12664
1.86695
0.745338
-1.91393
0.100196
-1.29678
3.50769
1.07806
-2.01407
0.679978
1.00815
-3.50531
5.00246
-2.63715
-2.3653
6.0106
1.11016
-3.74732
4.28134
-3.87263
2.33742
-3.48643
-1.4099
-5.28253
-3.55853
-2.5476
4.91916
-3.2984
5.37739
1.23976
-5.19568
6.43544
-3.64684
1.68403
-3.09428
3.83962
-1.03003
-2.06425
2.86411
2.77809
-2.99299
-0.00135601
-0.12888
2.37464
-2.50352
-0.565791
-2.57877
-4.57348
4.90378
-2.10582
4.55235
2.16781
-1.91578
6.46813
1.81004
-3.72582
-3.24875
-3.70953
-1.3834
3.15635
-0.592511
-4.2327
-5.41791
4.1394
0.213255
-6.9176
7.73094
-0.813341
-3.95013
-0.630614
4.75507
-5.97744
0.480678
-3.90623
3.82471
4.72397
4.93723
-11.3876
-0.205154
-6.22999
1.15519
-7.38518
5.50339
-3.59893
7.72176
-10.3693
6.94614
-9.25161
6.53252
-0.852664
6.24204
-4.07586
2.76939
-8.46932
-6.85711
5.41475
-2.7232
6.1352
-3.07348
9.20869
-5.72681
5.17529
4.03339
-0.964233
-4.15085
-5.19529
4.23106
-0.0199975
4.10151
4.97481
-2.86756
4.64886
2.26517
-4.6628
-2.13086
-6.49926
1.83647
-3.34709
-1.91787
3.75434
3.16725
3.75459
1.23954
-3.34389
7.14488
-8.14803
-1.78129
-3.28371
5.17496
-0.943903
3.33283
-6.61654
-1.87285
4.86443
-0.837516
-4.02692
0.814627
-4.36579
1.67569
-6.04149
5.18518
-5.61208
2.19412
-9.75835
-5.2042
-5.14027
-2.23738
-5.24603
-7.59893
5.36155
-1.83894
5.4821
-8.54893
7.71141
-3.47978
8.84133
-5.43932
-1.03664
5.83975
1.34126
10.1826
0.202728
-4.73339
-1.92807
3.94187
-2.01379
1.23452
-3.55611
0.385756
2.47665
3.53395
-6.62695
-0.0350749
-4.76847
-3.92991
7.93297
5.60536
11.6346
1.24259
9.10921
-1.17624
10.3518
4.1396
4.37514
-3.03256
4.51471
1.00341
4.53199
-0.893734
2.83611
1.73781
1.78143
0.771855
2.31349
1.37191
3.19454
0.114572
-2.03978
4.62699
-8.64252
-0.993367
-8.05766
1.12908
5.81895
-4.68987
3.04987
-0.901326
1.03607
0.0385474
-1.50846
1.46991
-2.77543
-1.98718
-0.414517
-1.65749
2.33746
1.8502
-1.92295
-0.852478
0.375629
-3.93416
3.1108
-3.11216
-0.334068
6.10137
-2.79337
0.289848
-1.10934
-2.28893
-2.83048
2.73028
6.17578
0.292349
3.11323
5.19613
3.10142
0.233858
3.89454
-5.65135
-3.58861
-5.8565
-0.353114
4.40195
1.72171
7.92671
5.75511
4.8112
-1.80533
-9.95336
6.53846
-2.02376
5.22386
-1.19694
-4.84454
5.00662
2.32211
-5.62628
0.0141975
-4.83035
-6.8541
-0.552439
8.26385
-9.63015
8.59351
5.77164
1.36003
-4.40976
-0.73051
4.23807
0.137067
10.4889
-1.17847
-6.71291
7.89138
-4.64047
3.64711
0.750485
2.73471
2.2204
1.31907
-5.39384
-10.0837
-1.99194
-1.51337
-4.35724
0.515643
-2.36584
6.26769
-2.62059
3.9294
5.2708
6.30687
-2.13785
-4.16852
6.4535
-2.5241
3.78277
)
;

boundaryField
{
    wall-4
    {
        type            calculated;
        value           uniform 0;
    }
    velocity-inlet-5
    {
        type            calculated;
        value           uniform -3.75095;
    }
    velocity-inlet-6
    {
        type            calculated;
        value           uniform -5.62643;
    }
    pressure-outlet-7
    {
        type            calculated;
        value           nonuniform List<scalar> 8(3.20405 7.73604 4.40339 9.76837 7.45573 5.16289 5.76756 9.01532);
    }
    wall-8
    {
        type            calculated;
        value           uniform 0;
    }
    frontAndBackPlanes
    {
        type            empty;
        value           nonuniform 0();
    }
}


// ************************************************************************* //
