/*--------------------------------*- C++ -*----------------------------------*\
| =========                 |                                                 |
| \\      /  F ield         | OpenFOAM: The Open Source CFD Toolbox           |
|  \\    /   O peration     | Version:  4.0                                   |
|   \\  /    A nd           | Web:      www.OpenFOAM.org                      |
|    \\/     M anipulation  |                                                 |
\*---------------------------------------------------------------------------*/
FoamFile
{
    version     2.0;
    format      ascii;
    class       volVectorField;
    location    "47";
    object      U;
}
// * * * * * * * * * * * * * * * * * * * * * * * * * * * * * * * * * * * * * //

dimensions      [0 1 -1 0 0 0 0];

internalField   nonuniform List<vector> 
918
(
(0.98509 -0.000551161 0)
(0.00479421 2.96625 0)
(0.0132325 0.852457 0)
(0.979828 0.00240781 0)
(-0.0115 2.0554 1.61883e-20)
(-0.00705126 2.94891 -1.09815e-18)
(0.812169 1.16122 1.76425e-19)
(0.226263 0.116572 -6.35178e-21)
(0.999905 -0.000300457 0)
(0.0509598 0.821634 0)
(0.0145657 0.639738 0)
(0.732303 -0.0137017 0)
(0.0115186 2.93012 0)
(0.0033102 2.79509 0)
(-0.0210768 3.15171 3.3766e-19)
(-0.0252793 1.90055 -5.23528e-22)
(0.298004 0.036181 4.1758e-19)
(0.203594 1.18467 1.26439e-19)
(0.961961 0.00387594 0)
(-0.00487005 0.559038 0)
(0.0361453 0.145158 -3.0158e-19)
(1.00217 -0.00519955 0)
(1.00076 -0.0101515 0)
(0.975977 -0.00653312 0)
(0.579062 -0.0288537 0)
(0.0183145 2.63873 0)
(-0.0148368 2.91012 3.8627e-19)
(0.0146942 0.924611 0)
(-0.00129553 1.17504 0)
(0.0148754 0.906997 0)
(-0.00984503 2.61326 0)
(0.00155389 2.11389 -1.26052e-20)
(-0.011158 1.87983 0)
(-0.0204434 2.98752 -3.95424e-23)
(-0.01698 3.00539 8.72308e-19)
(0.0020141 3.00015 0)
(0.870858 -0.00881619 0)
(0.438851 0.973913 8.06327e-20)
(0.784615 1.17965 -1.8968e-19)
(0.932718 1.01758 2.11643e-19)
(0.656988 1.27551 -4.04916e-20)
(0.662354 1.25921 2.35854e-19)
(0.265108 0.185606 6.1932e-21)
(0.239111 0.091158 0)
(1.13839 0.57327 0)
(0.23603 0.175788 2.82725e-20)
(0.19787 0.115507 -2.93555e-20)
(0.919604 -0.00724466 0)
(1.00028 0.000157775 0)
(0.999916 0.000343715 0)
(1.00351 -0.00767219 0)
(1.00096 -0.000944191 0)
(1.00019 2.43252e-05 0)
(0.0622393 1.80523 -3.30245e-19)
(0.0250422 1.01483 0)
(0.0797018 0.890387 0)
(0.0107027 0.969383 0)
(0.0316174 0.754396 0)
(0.0116361 1.99628 0)
(0.00558655 0.864812 0)
(0.00830381 0.651827 0)
(0.00153021 0.850366 0)
(0.0133801 0.629192 0)
(0.839479 -0.0146799 0)
(0.84575 0.0290195 0)
(0.765936 -0.00454521 0)
(0.81435 0.0372086 0)
(0.703351 -0.0131796 0)
(0.0153225 3.00067 3.99063e-19)
(0.0116979 3.00842 0)
(0.00650716 3.00253 0)
(0.0141536 2.99723 4.4842e-24)
(0.00834219 2.95852 -6.03205e-19)
(0.0152033 2.98183 0)
(0.0112516 2.90364 0)
(0.0252271 2.93019 8.85737e-25)
(0.00511018 2.8251 0)
(0.0316778 2.91617 0)
(-0.00469986 2.74581 0)
(0.302759 3.54328 0)
(-0.146195 3.62005 0)
(0.134082 3.24408 -3.11674e-19)
(-0.0101532 2.98413 0)
(-0.0215104 1.99499 0)
(-0.00845845 2.16286 5.16253e-22)
(-0.0179232 1.9048 -6.90764e-21)
(0.401792 0.138968 -1.44624e-19)
(0.307647 0.0279078 -1.39898e-19)
(0.378489 0.148477 -4.34686e-19)
(0.276843 0.0464271 -2.86162e-19)
(0.191747 0.958302 0)
(0.217071 1.3191 -1.43559e-19)
(0.371558 1.2685 2.43269e-19)
(0.987348 0.00823814 0)
(0.941273 0.0054442 0)
(1.00031 0.000430972 0)
(1.00326 0.00949624 0)
(1.00287 0.00785122 -1.12816e-18)
(0.991772 0.00989026 8.61428e-19)
(-0.0011544 0.821813 0)
(-0.000537272 0.570373 0)
(-0.028939 0.97405 0)
(-0.0089793 0.838224 0)
(0.00677137 0.552966 0)
(0.0684317 0.150915 9.3415e-20)
(0.128527 0.128436 0)
(0.993363 -0.00824786 0)
(0.954487 -0.00615429 0)
(0.760409 0.0444564 0)
(0.697578 0.0568892 0)
(0.664433 -0.023795 0)
(0.965166 -0.00436778 0)
(0.609852 0.0814467 0)
(0.442281 -0.000273183 6.24304e-19)
(-0.0363712 2.86474 2.84857e-19)
(0.0415854 2.90981 0)
(0.0544521 2.88502 0)
(-0.0035763 2.69916 0)
(-0.0137065 2.98493 3.65017e-19)
(-0.0181836 2.89495 0)
(-0.0159748 2.988 -1.13516e-18)
(-0.0131133 2.92536 3.90008e-19)
(-0.0010612 1.34662 0)
(0.0184388 1.37795 0)
(-0.00572735 2.13159 1.2272e-22)
(-0.0046434 2.09007 0)
(-0.0263208 1.88687 0)
(0.938218 -0.00763391 0)
(0.857268 -0.00823441 0)
(0.862657 0.00561286 0)
(0.949245 -0.00782056 0)
(0.883744 -0.00738204 0)
(0.547637 1.16809 -1.02776e-19)
(0.597031 1.20664 0)
(0.406662 0.927466 1.49135e-20)
(0.346093 0.780821 0)
(0.897229 1.05581 -5.71958e-20)
(1.00837 0.866024 1.16199e-19)
(0.356177 1.35744 0)
(0.514808 1.33808 0)
(0.523304 1.28595 0)
(0.124185 0.212085 -1.26766e-19)
(0.2989 0.180845 0)
(0.265211 0.0816356 8.08894e-20)
(0.985644 0.920388 0)
(1.0632 0.77934 0)
(1.08399 0.720874 -9.11827e-20)
(1.11766 0.627206 0)
(1.16696 0.413466 2.38733e-20)
(0.957694 -0.00848926 0)
(0.962386 -0.0102472 0)
(0.902029 -0.00737691 0)
(0.984352 -0.00918032 0)
(0.974844 -0.00933555 0)
(0.937448 -0.00597627 0)
(1.00018 0.00214903 0)
(1.00086 0.00143117 0)
(0.999868 0.000910626 0)
(0.0283031 2.06603 1.81436e-19)
(0.0979801 1.75649 0)
(0.0142261 2.17482 2.84201e-19)
(0.0427209 1.86038 -2.3906e-19)
(0.0955961 1.20417 -1.03245e-19)
(0.0420184 1.08593 0)
(0.120338 1.03366 0)
(0.00743926 0.925889 0)
(0.00915762 0.70642 0)
(-0.00288812 2.23071 -4.82585e-22)
(0.0188956 2.00014 0)
(-0.00247121 2.23365 -2.18593e-20)
(0.0124119 2.00325 3.88216e-20)
(0.00627778 0.898968 0)
(0.00348882 0.879006 0)
(0.0078979 0.674101 0)
(0.00721998 0.83661 0)
(0.00810143 0.612285 0)
(0.936155 0.00989975 0)
(0.845891 -0.0153054 0)
(0.926191 -0.000607171 0)
(0.840146 -0.0122212 0)
(0.810883 0.000106636 0)
(0.900384 0.0203298 0)
(0.876516 0.024661 0)
(0.787756 -0.00181597 0)
(0.0039612 3.06432 -3.52272e-21)
(0.0168152 3.05752 0)
(0.0152522 2.96895 0)
(0.00890885 2.87625 0)
(0.960967 3.97905 0)
(1.30545 3.24277 4.4918e-19)
(0.0685881 3.07589 0)
(-0.0236001 2.90765 0)
(0.000463422 1.39133 0)
(-0.0229469 1.69887 0)
(-0.00738841 1.53093 0)
(-0.0286675 2.56751 -1.61896e-21)
(-0.00971512 2.25429 0)
(-0.0178099 2.40377 0)
(0.00267421 1.93172 6.30445e-22)
(-0.00356443 2.23354 5.28721e-21)
(-0.00561257 2.19524 6.96213e-21)
(-0.00816575 1.91706 0)
(0.439666 0.122883 2.19133e-19)
(0.346873 0.0176062 -2.1523e-19)
(0.271875 1.57759 0)
(0.250108 0.744603 -1.27125e-19)
(0.177642 1.66911 -4.19066e-19)
(0.204308 1.21177 4.20016e-19)
(0.901614 0.00583562 0)
(0.967306 0.0107716 0)
(0.974385 0.0106891 0)
(0.92314 0.0059072 0)
(0.00200409 0.829566 0)
(0.00221216 0.819673 0)
(0.0125315 0.58703 0)
(0.203596 0.165866 2.61229e-19)
(0.171327 0.150484 -3.09084e-19)
(0.167324 0.121184 0)
(1.08982 0.0849437 1.17549e-20)
(1.06893 0.0383903 0)
(1.00526 0.0395803 0)
(0.901817 -0.00476211 0)
(0.480331 0.108334 0)
(0.530508 0.0903215 -9.99084e-19)
(0.390246 0.0115991 3.74142e-19)
(0.00915556 2.981 3.03912e-19)
(-0.0332969 2.86647 1.8634e-20)
(0.00190302 3.04968 -7.45302e-21)
(0.0208676 3.04313 2.74997e-19)
(-0.0153026 2.99631 1.2803e-20)
(-0.0127988 2.9495 -5.16087e-23)
(-0.0175692 3.01147 -2.35327e-19)
(0.0142688 3.02282 1.69425e-19)
(0.00677437 3.03682 -2.7484e-19)
(0.932965 -0.0020111 0)
(0.939002 -0.00311738 0)
(0.844183 -0.00774817 0)
(0.956347 0.0116163 0)
(0.942631 0.0129825 0)
(0.881127 0.00539743 0)
(0.917421 0.016346 0)
(0.92606 0.0148558 0)
(0.838143 0.00261719 0)
(0.760815 1.4328 2.45128e-20)
(0.803225 1.52404 0)
(0.215134 0.353157 3.11828e-20)
(0.255446 0.725483 2.47762e-19)
(0.294711 0.774908 -1.48749e-19)
(0.303573 0.555263 2.89073e-19)
(0.340077 0.824557 6.60197e-19)
(0.140185 0.24211 1.50583e-19)
(0.350208 0.164758 3.03085e-19)
(0.327557 0.175811 7.91241e-20)
(0.274145 0.0595579 1.50964e-19)
(1.15841 0.469225 1.49121e-20)
(1.17182 0.268214 1.30069e-20)
(0.00849293 2.22496 1.10251e-19)
(0.0397316 1.92883 0)
(0.966334 0.0307408 0)
(0.939621 0.0128372 0)
(0.867203 -0.0175705 0)
(0.0114187 3.07442 0)
(0.0206292 2.94393 5.00038e-19)
(0.0171451 2.9563 0)
(0.006622 2.85051 -4.98425e-19)
(0.00566521 3.09115 1.18213e-19)
(0.00576623 3.08168 0)
(0.888099 1.82716 -6.8612e-20)
(1.27044 2.37656 1.17847e-19)
(0.868275 1.93073 -4.75992e-19)
(0.0203598 2.98212 -2.63785e-19)
(0.0357119 3.0021 0)
(-0.0321815 2.8811 0)
(-0.00457937 2.21229 -6.12878e-21)
(-0.00294975 2.23642 -1.30237e-20)
(0.0056599 1.96669 -3.74942e-21)
(0.279079 1.39379 4.15104e-19)
(0.204525 0.54196 -2.82613e-19)
(0.0535947 1.99431 3.14761e-19)
(0.153407 1.88747 -3.78641e-19)
(0.149317 1.4868 4.07786e-20)
(0.00204873 3.11899 -7.31176e-19)
(0.0117906 3.11901 8.28123e-19)
(-0.00952818 2.98085 3.35022e-19)
(-0.00473843 2.97783 -3.16499e-19)
(-0.0214805 2.88142 -3.41396e-19)
(0.00764432 3.09972 -8.81108e-19)
(0.00120142 3.10455 8.9039e-19)
(0.295709 0.736386 0)
(0.263478 0.734979 -5.1514e-19)
(0.112479 0.251216 2.29481e-19)
(0.357096 0.946451 4.49152e-19)
(0.186749 0.282157 -6.92899e-19)
(1.17036 0.176201 3.03402e-20)
(1.17299 0.317153 0)
(1.15649 0.126748 -7.03362e-21)
(0.000136771 2.24251 -7.50155e-22)
(0.00312626 2.2361 0)
(0.0228137 1.9671 0)
(0.352131 1.29873 -1.48414e-19)
(0.380099 1.14061 -3.23581e-19)
(0.190541 0.374828 5.75119e-19)
(1.00554 -0.0111739 0)
(1.00751 -0.00743352 2.0949e-19)
(0.000170478 1.32255 0)
(-0.0197405 1.30049 0)
(1.00198 0.00345414 8.00736e-22)
(1.00381 0.0100489 4.23881e-19)
(-0.0150895 2.55104 2.13062e-21)
(-0.0224704 2.59344 0)
(0.0327076 3.17324 1.86217e-19)
(0.386616 3.47734 0)
(1.17684 0.642898 -2.77075e-20)
(1.0132 0.0136113 -7.62623e-22)
(1.02126 -0.0106763 0)
(1.00176 0.00011924 2.71716e-23)
(0.104004 1.35421 0)
(0.152169 2.571 0)
(0.0224812 1.29146 0)
(0.00229092 2.62249 2.24066e-20)
(-0.0198259 2.58156 9.63175e-21)
(1.00121 0.0294153 1.00791e-21)
(1.0624 0.00356267 0)
(1.09391 0.0226402 0)
(-0.0209297 1.74118 0)
(-0.0191753 2.58977 0)
(0.00636795 1.29329 0)
(0.307394 1.46696 -6.68191e-20)
(1.01125 -0.00987875 0)
(1.0094 -0.0153648 0)
(1.00241 0.000643334 2.66079e-19)
(1.00538 -0.00478113 -3.15867e-19)
(1.0012 -0.00104953 0)
(-0.0047255 1.46059 0)
(-0.00457136 1.36336 0)
(0.00412667 1.41306 0)
(0.00556787 1.28111 0)
(-0.00435669 1.25827 0)
(0.00170927 1.23936 0)
(1.03439 -0.0068733 0)
(1.02065 0.0161145 -3.49222e-22)
(0.814039 1.25285 9.44248e-20)
(1.00221 0.000405812 -2.65341e-19)
(1.00402 0.00534966 3.15637e-19)
(1.00118 0.00213015 0)
(1.01342 0.0105782 2.63268e-19)
(1.00855 0.00868577 -3.18939e-19)
(1.00929 0.0156806 0)
(-0.024492 2.61979 0)
(-0.0247396 2.60035 -3.77724e-21)
(-0.0228702 2.61425 2.84242e-21)
(1.23057 0.252712 2.50183e-19)
(1.15668 0.0783997 0)
(0.0420804 3.07356 -4.05295e-19)
(0.0645249 2.85332 -2.89082e-20)
(0.139913 3.19697 6.15814e-19)
(0.137488 3.22742 -7.8461e-20)
(0.132014 3.23384 0)
(0.0200117 3.13625 1.07669e-19)
(0.0742247 3.16124 3.95276e-19)
(0.0677937 3.18512 -2.04758e-19)
(0.0236827 3.12843 0)
(0.628836 0.27815 0)
(0.55167 0.323674 0)
(1.12944 0.671983 6.51854e-20)
(1.15159 0.799069 -6.25863e-20)
(1.19434 0.561185 0)
(1.23748 0.502458 0)
(1.01631 0.013685 -4.97121e-19)
(1.01512 0.0148274 6.23081e-19)
(1.0252 -0.0100898 0)
(1.02319 -0.0124052 0)
(1.0064 0.00260966 0)
(1.01013 0.00361694 0)
(1.00459 0.00187283 0)
(1.00983 0.00609016 0)
(1.00802 0.00629934 0)
(1.00443 0.00443886 0)
(0.0920921 1.35058 0)
(0.0882296 1.32043 0)
(0.122196 1.3858 0)
(0.144511 1.40028 0)
(0.146404 2.59488 0)
(0.187044 2.65969 -1.87634e-19)
(0.0990185 2.65149 0)
(0.0896079 2.65195 9.00147e-20)
(0.0415418 2.68063 -7.16589e-20)
(0.0195535 1.30886 0)
(0.0190611 1.24042 0)
(0.0176248 1.31816 0)
(0.0288146 1.26134 0)
(0.0026274 1.97793 -9.44809e-21)
(-0.0185795 2.61023 1.58451e-21)
(-0.00781225 2.66378 1.82151e-20)
(-0.0164838 2.68587 0)
(-0.0221421 2.61656 -2.14089e-20)
(-0.0227337 2.61133 -6.65975e-21)
(0.0136715 1.97763 8.63187e-21)
(-0.00536336 2.39484 -2.05089e-21)
(-0.0122396 2.41747 -2.16528e-20)
(1.01126 0.0372472 5.00325e-19)
(1.00649 0.0170723 -6.22095e-19)
(1.00235 0.0438467 -5.04259e-19)
(0.980625 0.0233772 6.40726e-19)
(1.06351 0.00784186 0)
(1.04873 -0.00890749 0)
(1.09278 0.0316277 0)
(1.07312 0.0118598 0)
(1.07115 0.000817739 0)
(1.13366 0.0837525 0)
(1.10845 0.0429431 0)
(1.11427 0.027994 0)
(-0.0194122 2.44269 -1.60214e-22)
(-0.00533194 2.01647 0)
(-0.0130902 2.22426 0)
(-0.0206531 2.61108 -1.31046e-21)
(-0.0170385 2.61971 -1.1004e-22)
(0.00802971 1.55936 -4.19597e-21)
(-0.000992419 1.49281 4.22434e-21)
(-0.00308185 1.37982 0)
(-0.00564367 1.38692 0)
(-0.00539264 1.38177 0)
(0.00870885 1.2959 0)
(0.0172169 1.23042 0)
(0.377988 1.48792 1.09227e-19)
(0.43226 1.48581 5.72123e-20)
(0.594833 2.44034 -1.01491e-19)
(0.402908 2.53769 2.94434e-19)
(0.345527 2.06578 3.08789e-20)
(1.02112 -0.00814786 0)
(1.01546 -0.0098751 0)
(1.01497 -0.0160625 0)
(1.00736 -0.00122751 0)
(1.00494 -0.00104785 0)
(1.00772 -0.00462983 0)
(1.00918 -0.00373954 0)
(1.01409 -0.00446906 0)
(1.02134 0.0163297 4.88358e-19)
(1.01812 0.0161398 -6.20154e-19)
(1.02165 0.0182616 -4.88974e-19)
(1.0195 0.0171198 6.13327e-19)
(0.77549 1.30528 0)
(0.715055 1.35587 9.30028e-20)
(0.882839 1.21533 3.43717e-20)
(0.945502 1.14826 -4.57139e-20)
(1.15809 2.60126 1.23113e-19)
(0.79756 0.115125 2.43899e-19)
(1.15327 0.110953 0)
(1.20927 0.193673 -2.00393e-19)
(1.19846 0.145069 -8.4991e-21)
(1.00264 0.150482 0)
(0.155209 2.96155 2.108e-19)
(0.110367 2.86836 -5.42202e-19)
(0.025624 2.3818 3.35902e-19)
(0.0960136 -0.0498237 -1.41399e-19)
(0.335379 3.42064 -8.73074e-20)
(0.196793 3.31977 0)
(0.227431 3.3528 1.13622e-19)
(0.254149 3.04133 -6.99885e-19)
(0.358455 3.20172 0)
(0.00753326 3.12044 2.05779e-20)
(0.016842 3.12922 -2.45742e-19)
(0.0158642 3.12498 3.60404e-19)
(0.0350974 3.13964 0)
(0.0334337 3.14992 0)
(1.19113 2.64003 0)
(0.551096 0.827733 -2.1465e-19)
(1.07403 0.970156 4.13533e-21)
(0.979192 1.07147 0)
(0.833892 0.953075 -4.83996e-20)
(1.06754 0.881157 1.04869e-20)
(0.341289 0.374083 -3.78011e-19)
(0.673711 0.313154 -7.74498e-21)
(0.624536 0.220197 1.72484e-19)
(0.568902 0.370829 1.27058e-20)
(0.480538 0.319075 -5.12704e-19)
(0.644105 0.329276 0)
(0.708856 0.412646 2.91008e-19)
(0.71439 0.410415 0)
(0.602941 0.361008 0)
(0.563321 0.265677 0)
(0.809838 0.607266 1.73353e-19)
(1.22213 0.282633 -2.15603e-19)
(1.22929 0.4151 0)
(1.25044 0.350269 0)
(0.729083 0.191784 2.56063e-19)
(0.858119 0.54125 -1.59329e-19)
(0.75518 0.510829 2.82725e-19)
(0.955007 0.429092 -3.09013e-19)
(1.0199 0.0148674 3.32442e-19)
(1.01806 0.0144524 -3.34673e-19)
(1.01589 0.0161923 0)
(1.03599 -0.00614644 0)
(1.02965 -0.00865644 -3.13479e-19)
(1.02751 -0.0126417 3.11001e-19)
(1.02498 0.00996894 0)
(1.02372 0.0135017 0)
(1.01119 0.00401463 0)
(1.01428 0.00895821 0)
(1.01472 0.00412143 0)
(1.01385 0.00299778 0)
(0.0608851 1.33353 0)
(0.064017 1.28758 0)
(0.14102 1.35507 -7.65435e-21)
(0.276993 1.46521 3.45892e-20)
(0.168267 1.43475 7.41868e-20)
(0.210781 1.44643 -1.20699e-19)
(0.163504 1.37863 0)
(0.129379 1.59397 -3.22227e-20)
(0.108864 1.56297 0)
(0.347363 2.01195 -4.46278e-20)
(0.347846 2.35949 2.52742e-19)
(0.190817 1.44788 2.81762e-20)
(0.249682 1.37201 4.84146e-21)
(0.196982 1.36125 -3.89267e-21)
(0.259447 1.32001 -5.06826e-20)
(0.2287 1.5773 0)
(0.260045 1.60698 5.34818e-20)
(0.0286083 2.26333 -1.63255e-20)
(0.044282 2.66941 0)
(0.0618594 2.40186 6.78859e-20)
(0.0578536 2.4244 0)
(0.0706098 2.66343 -1.0018e-19)
(0.0526437 2.69773 0)
(0.0286748 1.40899 2.13356e-22)
(0.0336323 1.46068 0)
(0.0290443 1.37949 0)
(0.025448 1.38153 -2.40186e-22)
(0.00105269 2.65087 -8.74277e-21)
(0.0302528 2.6961 8.15237e-20)
(0.0123137 2.72009 6.19731e-22)
(0.00549337 1.82623 7.99572e-21)
(-0.00388638 1.67502 3.37907e-21)
(0.0132965 1.28407 0)
(0.0214804 1.21338 0)
(0.0492757 1.57176 3.17208e-21)
(0.0282558 1.44485 1.1791e-21)
(0.03771 1.51013 -1.47057e-21)
(0.0388816 1.5959 0)
(-0.0231005 2.27658 3.62988e-20)
(-0.0302624 2.55822 -1.66788e-20)
(-0.00653069 2.44979 -2.76319e-22)
(-0.00160838 1.8404 -9.65344e-21)
(-0.0229151 2.49875 -3.32803e-21)
(-0.017883 2.44287 1.38865e-20)
(1.01954 0.0212124 -3.30058e-19)
(1.01566 0.0269198 3.32314e-19)
(1.0146 0.0164105 0)
(1.01208 0.0712709 4.62672e-19)
(0.989915 0.0608507 -5.20535e-19)
(0.946483 0.0418612 5.84311e-19)
(1.01373 0.10607 -6.17255e-20)
(1.04218 -0.00594366 0)
(1.05054 -0.00172726 3.00236e-19)
(1.03864 -0.010446 -2.99579e-19)
(1.07047 0.0417909 -1.77201e-20)
(1.06402 0.0219946 1.52821e-19)
(1.06375 0.0529488 0)
(1.0535 0.047718 -5.48268e-20)
(1.03268 0.0409059 0)
(1.02619 0.0376286 0)
(1.02757 0.0135671 0)
(1.02402 0.0161541 0)
(1.03951 0.0324928 1.12726e-19)
(1.03865 0.0257989 -2.48851e-19)
(1.05 0.0319179 -1.20002e-19)
(1.04851 0.0321232 -1.32011e-19)
(1.06896 0.0617186 2.57646e-19)
(1.0926 0.0512599 0)
(1.10338 0.0926183 0)
(-0.0188505 2.27362 9.80769e-21)
(-0.0103496 2.01632 -5.4002e-22)
(-0.0121177 2.01779 0)
(-0.020987 2.4525 -1.01981e-20)
(-0.0153567 2.40987 6.86801e-22)
(-0.0283865 2.48323 8.8424e-22)
(-0.0189956 2.62546 5.33911e-21)
(-0.0205482 2.56652 -7.2374e-22)
(-0.0163396 2.51562 2.23158e-21)
(-0.0135166 2.62169 -6.25562e-22)
(-0.0196906 2.62263 1.53434e-21)
(0.00214546 1.47513 -4.2262e-22)
(0.0177241 1.60902 -3.25762e-21)
(0.356336 1.43118 -4.45519e-20)
(0.357156 1.37202 2.03565e-20)
(0.65415 1.40979 -8.99164e-20)
(0.522992 1.47702 -5.54866e-20)
(0.588573 1.44302 0)
(0.583197 2.41855 9.53051e-20)
(0.655636 2.41697 1.4544e-19)
(0.403601 2.5149 3.73488e-20)
(0.405683 2.54768 -2.56129e-19)
(0.519675 2.49525 2.52649e-19)
(0.543722 2.45676 0)
(0.479856 2.51237 -2.38326e-19)
(0.236626 2.58697 4.95319e-19)
(0.346874 2.56756 -3.44167e-20)
(0.280469 2.65039 -6.75793e-19)
(0.93402 2.37717 3.23758e-19)
(0.827994 2.38619 0)
(1.01092 0.000268254 1.07198e-20)
(1.01525 -0.00545626 -8.88064e-21)
(1.01757 -0.00344028 -1.59982e-19)
(1.01487 -0.000901022 1.61731e-19)
(1.01221 0.00107623 0)
(0.640141 1.27943 0)
(0.65543 1.17571 0)
(0.762246 1.08154 0)
(0.654874 1.13372 0)
(1.18635 2.61117 2.70041e-20)
(1.07349 2.36096 0)
(0.852037 2.17357 1.64571e-21)
(0.822329 2.44273 0)
(0.922896 2.53508 -1.73469e-19)
(0.960416 2.49482 1.12682e-19)
(0.814726 0.177687 0)
(0.775148 0.148056 6.59537e-20)
(0.91966 0.144991 3.8815e-19)
(0.83155 0.147531 -1.43978e-19)
(0.799732 0.0855435 -4.47771e-19)
(1.07403 0.233133 -3.8345e-19)
(0.995973 0.298998 -6.51431e-21)
(0.927313 0.287119 3.56125e-19)
(1.00575 0.224005 2.9886e-19)
(0.952766 0.189748 -5.14655e-19)
(0.920398 0.190392 6.41143e-20)
(0.954415 0.249149 -1.36798e-19)
(0.934183 0.21633 0)
(0.992809 0.183822 2.53724e-19)
(1.04678 0.186875 0)
(1.04246 0.217141 0)
(1.10058 0.118821 1.20777e-19)
(1.07562 0.176255 -6.07655e-21)
(1.07126 0.233113 -6.47982e-20)
(1.10184 0.202596 0)
(1.02193 0.0454462 2.56119e-19)
(1.04221 0.058095 3.16506e-19)
(1.03435 0.0440604 -2.51508e-19)
(1.04289 0.0650334 -2.12665e-19)
(1.01739 0.0728291 -3.26306e-19)
(0.988935 0.156057 0)
(1.00214 0.104828 0)
(0.967737 0.0693661 -2.07717e-19)
(0.911897 0.0901694 8.10904e-20)
(1.03877 0.101617 2.94686e-19)
(1.06932 0.118339 -3.46566e-19)
(1.07725 0.150289 3.06359e-19)
(1.02815 0.145481 0)
(1.07293 0.108124 0)
(1.05573 0.0866989 -1.41583e-19)
(1.0452 0.0948869 -2.40853e-19)
(0.577685 1.07702 6.02883e-20)
(0.622912 1.38799 -2.44588e-20)
(1.16053 2.73592 -9.79385e-20)
(1.23735 3.07256 -1.12634e-21)
(1.25009 2.70851 -5.91694e-20)
(1.28024 2.70632 -3.27985e-20)
(1.16693 2.35017 8.1648e-21)
(1.22598 2.96635 -5.5988e-20)
(1.24779 2.93514 1.22767e-19)
(1.2429 3.22717 -7.95401e-20)
(1.36485 2.96302 9.15096e-20)
(1.30227 2.88757 0)
(0.559083 0.832552 -2.0512e-20)
(0.108003 1.23617 2.51065e-19)
(0.561354 0.420743 2.47944e-19)
(0.37053 0.158982 2.67178e-19)
(0.509399 0.367204 2.90704e-19)
(0.55344 0.451825 -4.79751e-19)
(0.546626 0.467589 3.93209e-19)
(0.486634 0.37607 -1.48015e-19)
(0.393581 0.302996 3.3255e-19)
(0.733183 0.257818 -1.46538e-19)
(0.693101 0.278757 0)
(0.663698 0.199402 3.23966e-21)
(0.73851 0.507773 1.52758e-19)
(0.713818 0.468945 -5.58978e-19)
(0.611079 0.461428 4.91668e-21)
(0.623622 0.447335 0)
(0.676194 0.723913 1.6701e-19)
(0.853705 0.777137 1.61686e-19)
(0.767836 0.861134 -1.88518e-19)
(0.891243 0.805327 -6.48703e-20)
(0.915135 0.837715 -1.66967e-20)
(0.921417 0.838905 1.71524e-20)
(0.86057 0.639815 -2.88321e-19)
(0.935411 0.706184 6.04497e-20)
(0.988974 0.714084 0)
(0.970819 0.683816 -8.5469e-20)
(1.02524 0.322735 8.91769e-20)
(1.12458 0.293271 1.2635e-19)
(1.061 0.269518 1.53702e-19)
(1.01519 0.36554 -1.80637e-19)
(1.06015 0.426558 0)
(1.105 0.410901 0)
(0.920816 0.358854 2.65806e-21)
(0.843712 0.297713 0)
(0.884842 0.294878 1.67075e-19)
(0.91497 0.294499 -3.59128e-21)
(0.946033 0.430026 8.61557e-19)
(0.906671 0.489475 2.24906e-19)
(0.907419 0.454288 -2.39337e-19)
(0.825647 0.439073 2.56726e-19)
(0.810637 0.435782 1.54662e-19)
(0.776402 0.415083 -1.50595e-19)
(1.02769 -0.000256493 2.64743e-19)
(1.01991 4.80868e-05 0)
(1.01855 0.000891597 1.7489e-19)
(1.02113 -0.00204775 -3.94202e-19)
(1.0221 0.00455143 1.91989e-19)
(1.02042 0.0113057 -4.04012e-19)
(1.02141 0.010613 0)
(1.02098 0.0105998 -8.34891e-20)
(1.01588 0.00783767 2.09118e-19)
(1.0168 0.0103762 -1.05799e-19)
(1.01748 0.00966252 7.78938e-20)
(0.0280805 1.31218 0)
(0.0329666 1.35559 0)
(0.0416206 1.31248 0)
(0.0413198 1.26879 0)
(0.0651178 1.3771 4.71368e-22)
(0.074442 1.34575 3.33279e-21)
(0.115801 1.50626 -1.17054e-20)
(0.0882423 1.35796 4.54797e-21)
(0.0328576 1.44982 -1.06958e-20)
(0.0363307 1.44229 8.26432e-21)
(0.0591825 1.36057 -1.70131e-21)
(0.0536414 1.36184 2.3386e-21)
(0.0451417 1.33948 2.29677e-22)
(0.0392962 1.36178 -8.02864e-22)
(0.105978 2.37161 -7.31898e-20)
(0.090452 2.42102 0)
(0.165798 2.06369 4.7342e-20)
(0.11057 1.70547 1.86791e-20)
(0.234332 2.05307 -3.81032e-20)
(0.204058 2.43912 0)
(0.268128 2.39284 -2.48652e-19)
(0.304823 2.39115 1.75781e-19)
(0.220447 2.00644 -1.11194e-19)
(0.148981 2.16701 7.50616e-20)
(0.151002 2.2819 0)
(0.0140945 1.87707 -1.33261e-20)
(-0.000703483 2.39547 -3.27854e-20)
(0.00501573 2.15003 0)
(0.0104977 2.4577 -5.52535e-21)
(0.0252941 2.30292 1.1368e-20)
(0.0171742 1.39089 -5.68273e-22)
(0.0187456 1.37738 1.06673e-20)
(0.0197984 1.3815 -4.66909e-21)
(0.0224012 1.38173 -1.76336e-21)
(0.0278916 1.41331 0)
(0.0167442 1.36193 0)
(0.0129478 1.28391 -5.70029e-21)
(0.0151884 1.35353 1.29861e-21)
(0.0174762 1.35387 0)
(0.0145612 1.27576 -3.92392e-21)
(0.0232109 1.21031 8.69249e-21)
(1.03988 0.0107287 0)
(1.04557 0.00733006 -2.79646e-20)
(1.03849 0.0212833 -2.00591e-19)
(1.04787 0.0199271 0)
(1.0515 0.0197815 0)
(1.03646 0.0113803 -2.82369e-21)
(1.0313 0.0109045 3.23294e-19)
(1.03155 0.0164773 3.95465e-19)
(1.02559 0.0203977 0)
(1.02302 0.0207723 0)
(1.03484 0.0255884 2.0098e-19)
(1.02607 0.0264194 0)
(1.02444 0.0261723 0)
(-0.0171149 2.01683 0)
(0.019946 1.64748 -3.19794e-21)
(0.0052119 1.75639 -1.5198e-20)
(0.0103087 1.36501 0)
(-0.00536728 1.54122 -1.90438e-21)
(0.00624133 1.4445 1.12684e-21)
(0.00675024 1.37448 0)
(0.381117 1.67264 0)
(0.363754 1.29456 -3.94884e-20)
(0.308022 1.34155 0)
(0.417219 1.29378 1.48079e-20)
(0.466813 1.4574 0)
(0.446754 1.403 4.99897e-21)
(1.03151 2.68183 -6.88092e-21)
(0.959256 2.41099 -3.95694e-19)
(0.909063 2.1945 4.52222e-19)
(0.841227 2.37833 1.11888e-19)
(0.84128 2.49676 0)
(0.913282 2.48991 0)
(0.916181 2.37229 0)
(0.896366 2.35941 -4.09813e-19)
(0.685252 2.45883 -1.69909e-19)
(0.796145 2.45457 -4.12352e-20)
(0.808624 2.42422 3.26384e-20)
(0.687013 2.39293 0)
(0.79301 2.39164 0)
(0.748161 2.40206 -1.56621e-19)
(0.765308 2.49192 0)
(0.625857 1.10566 0)
(0.487082 0.914065 -2.07643e-19)
(0.573599 0.942855 -1.34328e-20)
(0.528558 1.0493 0)
(0.5313 0.997552 3.14244e-19)
(0.790542 0.886468 -5.4476e-20)
(0.795489 1.0109 0)
(0.768274 0.960459 8.08329e-20)
(0.651946 1.04237 0)
(0.659742 0.945008 0)
(1.16694 2.75192 -1.03501e-19)
(1.14375 2.81721 -4.7555e-20)
(0.938613 2.32965 5.52577e-20)
(0.899433 2.3096 -3.8885e-20)
(1.13002 2.72327 0)
(1.08257 2.69164 4.89998e-20)
(1.08906 2.47697 -1.37697e-19)
(0.980894 2.23374 -1.39949e-20)
(0.496178 1.35111 0)
(0.507764 1.07201 -5.28438e-20)
(0.569775 1.15294 0)
(0.862011 0.234776 0)
(0.783016 0.191721 0)
(0.718142 0.151744 0)
(0.855306 0.235325 -2.64055e-19)
(0.754205 0.227055 1.53977e-19)
(0.927888 0.0762379 -1.68537e-19)
(0.943758 0.122914 0)
(0.922282 0.135984 7.21164e-20)
(0.860198 0.111838 2.90498e-19)
(0.828952 0.0700668 -1.82221e-19)
(1.17267 3.36134 -3.07654e-19)
(1.22443 3.28392 0)
(1.13822 3.37922 -6.04415e-19)
(0.637325 3.5377 5.28414e-19)
(0.848624 3.10546 2.12583e-20)
(0.516171 0.835847 2.51682e-19)
(0.419918 0.831446 0)
(0.317301 0.470071 -6.19655e-20)
(0.461132 0.667247 3.51411e-19)
(0.5549 0.433798 -8.48724e-20)
(0.522638 0.496204 9.67572e-20)
(0.661237 0.516518 2.09644e-19)
(0.696849 0.538246 0)
(0.655891 0.59162 0)
(0.611094 0.531842 0)
(0.987439 0.599916 4.19702e-20)
(0.911375 0.537401 -2.17158e-19)
(0.934417 0.567801 1.68247e-19)
(0.965444 0.510904 -1.68812e-19)
(1.08039 0.484258 0)
(1.07128 0.565506 -4.2478e-20)
(0.849399 0.395558 -3.50935e-19)
(0.85357 0.384801 -4.25979e-19)
(0.79478 0.37831 2.72216e-19)
(0.796449 0.355463 -2.77682e-19)
(0.84538 0.318659 -2.17775e-19)
(0.79308 0.317222 2.67908e-19)
(1.02668 0.00574407 -2.05177e-19)
(1.02633 0.00609055 4.24879e-19)
(1.02936 -0.000527979 2.56648e-19)
(1.03323 0.000772778 -3.10307e-19)
(1.03312 0.00779822 0)
(1.02997 0.00868948 -5.08358e-19)
(0.0606183 1.63688 1.05412e-20)
(0.0439832 1.57162 0)
(0.0855437 1.68332 7.47953e-20)
(0.0935765 1.66557 -6.66479e-20)
(0.0887216 1.52046 2.18623e-20)
(0.086386 1.51005 0)
(0.0184056 1.6718 0)
(-0.000708781 1.47519 -8.64188e-22)
(0.00648919 1.42085 7.76405e-22)
(0.000718938 1.53758 3.21605e-21)
(0.00933033 1.87522 -1.55602e-21)
(-0.00674411 1.92736 2.69715e-21)
(0.497287 1.37082 -1.12342e-19)
(0.491467 1.37787 1.21132e-19)
(0.445505 1.29172 -1.67774e-20)
(0.434773 1.28999 3.31411e-21)
(0.627234 1.30059 0)
(0.544557 1.38817 3.84636e-20)
(0.560956 1.39888 -3.73296e-20)
(0.45686 1.27821 1.63171e-20)
(0.512987 1.23562 0)
(0.558731 1.19804 0)
(0.64716 2.41695 2.54994e-19)
(0.670057 2.46073 5.24351e-19)
(0.709094 2.47442 -3.5972e-19)
(0.607116 2.45506 -8.53682e-20)
(0.562437 2.54134 1.2152e-19)
(0.522581 2.52307 -3.14223e-19)
(0.97499 2.37728 -2.51699e-19)
(1.01086 2.38741 0)
(0.919077 2.17392 -2.92685e-19)
(1.05304 2.67219 0)
(1.05614 2.65896 0)
(0.601625 2.24773 -7.15023e-20)
(1.02904 3.15427 4.6768e-20)
(0.896127 3.0134 1.08554e-20)
(0.282008 0.888307 0)
(0.316741 0.725086 -1.32503e-19)
(0.460192 0.694605 -1.32624e-19)
(0.396527 1.97484 0)
(0.478025 2.78404 -1.50502e-20)
(0.432723 2.56753 0)
(0.693405 0.661538 -3.52044e-19)
(0.780132 0.680018 4.71137e-19)
(0.80785 0.615042 -4.6203e-19)
(0.68116 0.626368 -4.54228e-20)
(0.731274 0.584121 -1.85812e-19)
(1.01468 2.75915 -3.53221e-20)
(1.04803 2.83124 -4.91309e-20)
(0.653476 2.12787 2.96333e-19)
(0.581959 1.70641 -2.05191e-19)
(0.711312 1.90138 -1.74113e-19)
(0.997072 2.46475 -4.57538e-20)
(0.99824 2.45187 1.06759e-19)
(0.665434 1.86626 9.72371e-21)
(0.460409 1.32973 6.24772e-20)
)
;

boundaryField
{
    wall-4
    {
        type            noSlip;
    }
    velocity-inlet-5
    {
        type            fixedValue;
        value           uniform (1 0 0);
    }
    velocity-inlet-6
    {
        type            fixedValue;
        value           uniform (0 3 0);
    }
    pressure-outlet-7
    {
        type            zeroGradient;
    }
    wall-8
    {
        type            noSlip;
    }
    frontAndBackPlanes
    {
        type            empty;
    }
}


// ************************************************************************* //
