/*--------------------------------*- C++ -*----------------------------------*\
| =========                 |                                                 |
| \\      /  F ield         | OpenFOAM: The Open Source CFD Toolbox           |
|  \\    /   O peration     | Version:  4.0                                   |
|   \\  /    A nd           | Web:      www.OpenFOAM.org                      |
|    \\/     M anipulation  |                                                 |
\*---------------------------------------------------------------------------*/
FoamFile
{
    version     2.0;
    format      ascii;
    class       volScalarField;
    location    "3";
    object      p;
}
// * * * * * * * * * * * * * * * * * * * * * * * * * * * * * * * * * * * * * //

dimensions      [0 2 -2 0 0 0 0];

internalField   nonuniform List<scalar> 
918
(
0.513798
0.843018
0.0164434
0.50594
0.00243789
0.809312
-0.736677
0.425972
0.493186
-0.105578
0.0185891
0.437135
0.674602
0.431661
-1.30321
0.0293287
0.53784
-0.840363
0.447128
0.0098637
0.533584
0.522251
0.502108
0.436726
0.481582
0.555056
0.548341
0.0068509
0.00376868
0.00637528
0.0114202
0.00875148
0.0137918
0.692041
0.743534
0.767735
0.431472
0.105222
-0.424298
-0.564629
-0.534241
-0.871991
0.443982
0.465234
-0.204269
0.396163
0.383522
0.448448
0.49023
0.494151
0.489324
0.492301
0.508511
0.273665
-0.128223
-0.201691
-0.069675
-0.0445145
0.0798885
0.019985
0.0297193
0.0310876
0.0249759
0.390383
0.435439
0.436275
0.447991
0.447058
0.781702
0.752059
0.777442
0.700281
0.712781
0.651365
0.618163
0.438359
0.469493
0.414009
0.411158
-1.59854
-2.24073
-0.90301
-0.673965
0.000132645
0.0311991
0.0344751
0.530613
0.547219
0.523928
0.529668
0.664363
-0.688292
-0.921655
0.453273
0.455583
0.509714
0.488029
0.482819
0.457041
0.0137926
0.0134147
0.00554714
0.0127629
0.00287354
0.356412
0.342815
0.420954
0.452101
0.441532
0.462822
0.454358
0.236561
0.499923
0.512085
0.193869
0.414843
0.469226
0.441054
0.518451
0.469427
0.575645
0.59446
0.00738531
0.0026714
0.0150636
0.00662101
0.00880125
0.427417
0.419298
0.447245
0.430719
0.443184
-0.0118865
-0.12857
0.204996
0.398202
-0.24009
-0.379647
-0.740029
-0.666629
-0.96229
0.752027
0.471241
0.493146
-0.152861
-0.132366
-0.278866
-0.0316042
-0.14904
0.449088
0.447083
0.44184
0.446122
0.448353
0.452644
0.497691
0.495395
0.496487
0.296825
0.356989
0.247429
0.20957
-0.451872
-0.236341
-0.430244
-0.0230585
-0.0108324
0.0896947
0.108925
0.0796346
0.0704497
-0.00637134
0.0258345
0.0172538
0.0279714
0.0245054
0.385256
0.371837
0.395889
0.400595
0.438361
0.431503
0.433904
0.434859
0.561881
0.592353
0.602748
0.56827
-2.8162
-4.89597
-0.434918
-0.263431
0.00909387
0.00876158
0.00326072
0.00618205
0.00482801
0.00326972
0.0496277
0.0562084
0.0263906
0.0409363
0.530766
0.538284
0.646019
0.700086
0.583063
0.591439
0.450555
0.454376
0.459665
0.454129
0.0196589
0.0108877
0.0178466
0.358761
0.321303
0.346144
0.203884
0.121001
0.279164
0.305276
0.524185
0.516965
0.537278
0.279132
0.305447
0.608653
0.638841
0.619377
0.641188
0.68934
0.705549
0.675147
0.397903
0.420007
0.418347
0.445045
0.445008
0.449513
0.442979
0.438612
0.436842
-0.185619
-0.452781
0.679449
0.598118
0.453073
0.570175
0.725394
0.764345
0.515426
0.490275
0.514836
-0.00519899
-0.0782124
0.195288
0.172255
0.33697
0.357522
0.345705
0.545999
0.487202
0.553902
0.524126
0.471348
0.510677
-0.503117
-1.18198
-0.773316
0.132138
-0.0984348
0.0262375
0.0611669
0.0506834
0.0531982
0.682815
0.74174
0.384344
0.495199
0.486306
0.398311
0.407585
0.469132
0.392615
0.42606
0.459677
0.426174
0.704305
0.671783
0.737088
0.72959
0.763148
0.110948
0.0639305
-0.0230218
0.122577
0.143164
0.133915
0.702908
0.719031
0.752834
0.432738
0.453325
0.0103443
0.0162291
0.487485
0.495753
0.00506252
0.00216988
-0.0930302
-1.19861
0.145905
0.462664
0.45602
0.481493
-0.0881702
0.259346
0.0322398
0.0970082
0.0669629
0.438251
0.405477
0.366221
0.0226218
0.0211426
0.0148745
-0.314956
0.478871
0.448974
0.483135
0.485439
0.484233
0.0142555
0.0135505
0.0184084
0.00853909
0.0151297
0.0251916
0.4314
0.435774
-0.134972
0.478199
0.480529
0.48505
0.467048
0.477002
0.45936
0.0170139
0.00740436
0.0115648
0.202657
0.311139
0.237605
0.542102
-0.0183534
-0.173091
-0.386888
0.124052
0.237817
0.0558632
0.344613
0.449893
0.385399
0.199366
0.0777745
0.184714
0.112704
0.457627
0.460637
0.44807
0.446292
0.463422
0.454164
0.477641
0.464606
0.476286
0.48661
-0.0154118
-0.0473577
-0.0913981
-0.155702
0.275601
0.368668
0.214922
0.235998
0.144981
0.0387387
0.0415758
0.0338399
0.031335
0.0749364
0.0682461
0.0799273
0.0833106
0.0542384
0.0508635
0.0765024
0.0584452
0.0690435
0.432797
0.431009
0.435656
0.455756
0.41415
0.40208
0.382316
0.399885
0.393787
0.343782
0.366828
0.351016
0.0166669
0.0260117
0.0147211
0.0348872
0.0268518
0.0131191
0.0146657
-0.00885646
0.00596146
0.0208617
0.0204787
0.0190436
-0.23992
-0.398795
0.613425
0.530603
0.304047
0.461785
0.461003
0.450733
0.463924
0.484716
0.488798
0.477651
0.452259
0.441709
0.442998
0.434617
0.444845
-0.0547672
-0.278724
-0.0404236
-0.117952
0.082446
0.502647
0.315093
0.269102
0.258521
0.423511
-0.342471
-0.188677
0.493757
0.620722
-0.891314
-0.542176
-0.773597
-0.470731
-0.518681
0.29054
0.36177
0.376425
0.323207
0.228879
-0.385614
0.280571
-0.00441316
0.0459597
0.291057
0.142674
0.148803
0.465007
0.483702
0.358198
0.341382
0.424055
0.394466
0.407589
0.404213
0.429002
0.367107
0.226235
0.195199
0.161226
0.499368
0.38497
0.420164
0.376423
0.454384
0.458933
0.453667
0.444626
0.439175
0.434155
0.444645
0.444077
0.454605
0.457903
0.452014
0.456835
-0.0202701
-0.0103404
-0.0331657
-0.186201
-0.164822
-0.255699
-0.089207
0.106258
0.0599945
0.272247
0.368248
0.0769633
-0.0935924
-0.0476993
0.0375574
0.17481
0.160709
0.10795
0.164988
0.169914
0.136009
0.203983
0.19162
0.0436631
0.0602132
0.037054
0.0371785
0.101851
0.119168
0.119015
0.0683604
0.0764847
0.0307602
0.0330332
0.0904124
0.0670457
0.0807513
0.0747329
0.0282319
0.0364057
0.0475626
0.0502739
0.0660959
0.052981
0.434765
0.435165
0.434114
0.428205
0.445817
0.45336
0.422042
0.427632
0.419189
0.424072
0.392956
0.395311
0.397433
0.402419
0.41551
0.421814
0.438361
0.437042
0.413289
0.414973
0.394156
0.401131
0.387832
0.380745
0.36946
0.0321071
0.0132128
0.017464
0.0282933
0.0202514
0.0209001
0.047125
0.0503724
0.0597645
0.0344766
0.0485354
-0.000194549
0.0160596
-0.0607492
0.057168
-0.232038
-0.290044
-0.375677
0.600776
0.657107
0.52711
0.45299
0.476969
0.554047
0.585082
0.3911
0.460814
0.447317
0.680194
0.675914
0.436178
0.432004
0.45155
0.438423
0.447539
0.0884293
0.221572
0.206569
0.348661
0.28041
0.283607
0.459841
0.42536
0.517135
0.502327
0.496786
0.509826
0.472075
0.491728
0.497596
0.347265
0.433594
0.442454
0.44783
0.446289
0.455571
0.441621
0.444696
0.427797
0.411159
0.418751
0.362171
0.371413
0.355164
0.355504
0.420522
0.408676
0.412111
0.40812
0.431058
0.4404
0.445615
0.46314
0.459221
0.403953
0.373627
0.384792
0.415466
0.378956
0.388889
0.394098
0.44545
0.502312
0.327604
-0.0654194
-0.0396648
-0.207796
-0.19747
0.026591
0.29847
-0.309995
-0.472906
-0.785651
0.356573
-0.538696
-0.135061
-0.253126
0.308205
0.273574
0.200444
0.222732
0.289721
0.483812
0.490959
0.500627
0.38955
0.381278
0.308199
0.354643
0.397132
0.39025
0.415013
0.37242
0.256017
0.317511
0.392864
0.361828
0.28469
0.285621
0.39937
0.297487
0.325624
0.381468
0.318022
0.317744
0.411295
0.465772
0.462917
0.433854
0.383614
0.389844
0.401657
0.422995
0.424825
0.422094
0.445855
0.442466
0.438324
0.448004
0.445143
0.443156
0.437566
0.451742
0.450876
0.461999
0.457539
0.0309488
0.0379899
0.00468242
0.000354992
0.0471173
0.0329617
0.00330325
0.00897502
0.0564474
0.0569388
0.0181144
-0.005299
0.0241582
0.0486214
0.160072
0.185741
0.179646
0.125189
0.265925
0.319518
0.382091
0.341232
0.219696
0.234764
0.231539
0.0955892
0.0905448
0.0833141
0.106494
0.108641
0.0218598
0.0157918
0.0201082
0.0548839
0.0355154
0.0175842
0.0260131
0.0302443
0.0284056
0.0266303
0.0243101
0.431112
0.417439
0.395343
0.386349
0.396283
0.40846
0.423665
0.430783
0.438545
0.430082
0.426634
0.426492
0.43349
0.0160266
0.0193724
0.00854017
0.0262887
0.037313
0.0169589
0.0241518
0.299732
0.175202
0.255042
0.10103
-0.127852
-0.0278377
0.512602
0.634121
0.665277
0.647405
0.586613
0.586859
0.649143
0.67898
0.406178
0.528406
0.465602
0.644643
0.637164
0.674857
0.544633
0.463291
0.497304
0.584332
0.49671
0.490854
0.410405
0.339021
0.344998
0.416628
0.528123
0.366659
0.38786
0.455404
0.452604
0.401636
0.467807
0.406634
0.501718
0.371254
0.381254
0.310928
0.475343
0.497077
0.512709
0.480862
0.497689
0.471015
0.471339
0.480322
0.48741
0.490677
-0.571058
-0.364456
-1.25891
-1.18222
-0.739293
0.24933
0.297215
-0.147298
0.192047
-0.0447624
0.133009
0.302334
0.342437
0.306284
0.253758
0.335992
0.381259
0.383459
0.3824
0.293841
0.26312
0.435683
0.441179
0.43176
0.449792
0.449279
0.46088
0.428995
0.440503
0.433087
0.435609
0.429477
0.42907
0.112671
0.0882687
0.130208
0.105592
0.0723335
0.0818867
0.030488
0.0074181
0.0200177
0.0397125
0.0191382
0.0411481
0.348211
0.347054
0.145062
0.25915
0.0784594
-0.038836
-0.0681319
0.0941542
0.195824
0.233122
0.451199
0.559344
0.507487
0.513858
0.432128
0.461638
0.612228
0.534713
0.604173
0.521459
0.530591
0.00420094
-0.245387
-0.322326
-0.667266
-0.34769
-0.0580064
-0.173449
-0.49912
-0.571554
0.384209
0.387445
0.360715
0.3404
0.348755
0.0435064
0.0550471
0.301146
0.611847
0.455347
0.214897
0.319046
0.451959
0.594167
)
;

boundaryField
{
    wall-4
    {
        type            zeroGradient;
    }
    velocity-inlet-5
    {
        type            zeroGradient;
    }
    velocity-inlet-6
    {
        type            zeroGradient;
    }
    pressure-outlet-7
    {
        type            fixedValue;
        value           uniform 0;
    }
    wall-8
    {
        type            zeroGradient;
    }
    frontAndBackPlanes
    {
        type            empty;
    }
}


// ************************************************************************* //
