/*--------------------------------*- C++ -*----------------------------------*\
| =========                 |                                                 |
| \\      /  F ield         | OpenFOAM: The Open Source CFD Toolbox           |
|  \\    /   O peration     | Version:  4.0                                   |
|   \\  /    A nd           | Web:      www.OpenFOAM.org                      |
|    \\/     M anipulation  |                                                 |
\*---------------------------------------------------------------------------*/
FoamFile
{
    version     2.0;
    format      ascii;
    class       surfaceScalarField;
    location    "3";
    object      phi;
}
// * * * * * * * * * * * * * * * * * * * * * * * * * * * * * * * * * * * * * //

dimensions      [0 3 -1 0 0 0 0];

internalField   nonuniform List<scalar> 
1300
(
3.75095
5.62643
-6.55496
3.75095
-6.39545
5.62643
-6.03874
6.03874
-1.68467
1.68467
1.87503
1.87592
-5.7615
5.7615
-5.55638
5.55638
-3.04209
3.04209
-5.24247
5.24247
-5.13044
5.13044
4.50202
-4.50202
-5.25172
5.25172
-2.18152
2.18152
-6.2653
6.2653
3.13684
-3.13684
-5.58124
5.58124
-0.917989
0.917989
-0.597305
4.34826
3.15365
3.15365
-2.7954
2.7954
-4.85187
4.85187
6.22058
-6.22058
9.79393
-9.79393
-3.23897
-3.29147
1.32232
-8.04203
-5.07314
-5.07314
-8.44127
8.44127
-2.81484
2.81159
3.1802
-3.1802
-1.70765
1.70765
-5.69751
-0.341226
-5.69751
6.3568
-0.318064
6.3568
-1.79093
0.106261
-1.79093
4.55682
-4.55682
1.5334
0.151267
1.5334
3.16859
-3.16859
-1.88282
3.75785
1.86814
-1.8337
6.18196
-1.91725
3.79317
-4.92746
4.92746
-5.85539
0.0938836
-5.85539
5.65548
0.106023
5.65548
-5.45523
5.45523
-5.56987
0.0134902
-5.56987
5.57083
-0.0144469
5.57083
3.22187
-3.22187
-3.06329
0.0212008
-3.06329
3.0386
0.00349743
3.0386
0.355801
5.27063
-5.98223
8.79382
-5.27063
0.0281629
5.20711
0.0353578
5.20711
-5.15085
0.0204152
-5.15085
5.07406
0.0563807
5.07406
4.32312
0.178899
4.32312
-4.77191
0.269888
-4.77191
-3.27218
-3.2711
-5.36734
0.115613
-5.36734
-2.20828
0.0267572
-2.20828
2.12124
0.0602868
2.12124
-3.85383
3.85383
-6.54577
0.28047
-6.54577
3.09544
0.0413945
3.09544
1.84363
1.90732
5.59458
-5.59458
2.45775
-5.60404
0.0227974
-5.60404
-5.56289
-4.23104
5.56289
0.0183567
-1.26673
0.348739
-1.26673
3.15355
9.33836e-05
3.15355
2.96593
0.0726651
-2.96593
0.170535
3.65239
-3.65239
2.15361
0.641789
2.15361
-5.5363
5.5363
4.99032
0.0837406
-4.99032
0.138448
6.14266
0.0779154
6.14266
-6.20776
-0.0128143
-6.20776
3.33035
-6.62181
-3.28078
5.14433
0.10739
-5.14433
0.0711966
3.21228
-0.0320842
3.21228
-3.13089
3.13089
-3.18451
0.00431205
-3.18451
-1.64924
-0.0584091
-1.64924
2.00723
-0.299576
2.00723
-5.1847
-0.51281
-5.1847
-6.55999
0.0142197
6.55999
-0.203192
2.9903
-2.9903
-1.92419
0.133257
-1.92419
-4.82987
-0.354825
4.82987
-0.273059
-4.2671
-0.289721
-4.2671
-3.17555
-0.00895739
3.17555
-0.00695908
3.14313
0.0104282
-3.14313
-0.0254665
-1.87235
3.77967
-1.87861
3.74674
-4.7863
-0.141169
-4.7863
5.05104
-0.123571
5.05104
6.04077
0.224531
-6.04077
0.185385
5.62199
0.0334885
5.62199
-5.39278
-0.0624511
-5.39278
5.49787
-0.0426347
5.49787
5.62567
-0.00367411
-5.62567
0.0557925
5.55576
0.0150654
5.55576
3.30706
-0.0851862
3.30706
-3.20435
-0.0175263
-3.20435
3.15122
-3.15122
3.0993
0.0519143
-3.0993
0.036009
-11.1138
11.101
-0.0229428
-11.0908
5.18417
5.18417
3.25387
1.06925
3.25387
-5.02813
0.256222
-5.02813
3.28212
-6.56289
3.26146
-6.53364
3.33446
-11.3765
3.28035
-6.55144
5.46261
-5.46261
5.44111
0.0215075
-5.44111
0.0737691
-2.18455
-0.0237337
-2.18455
-3.72237
-0.131455
-3.72237
4.12384
-0.270006
4.12384
-3.1648
3.1648
-3.1296
-0.0352072
3.1296
-0.0341516
5.56713
-0.0113631
-5.56713
-0.0369136
1.4079
0.125498
-1.4079
0.141176
3.80088
-0.148497
3.80088
-3.48033
-0.172057
-3.48033
-2.19167
0.00712631
2.19167
-0.038064
-5.78038
0.244085
-5.78038
-11.1812
0.0903526
-11.1458
-6.11741
-6.11741
2.32386
11.1177
-3.18899
-0.0153559
3.18899
0.0232924
3.15545
0.009356
-3.15545
0.0245515
-3.13912
-0.0120951
3.13912
-0.00822773
-1.80008
0.150839
-1.80008
-2.60108
2.60108
-2.32597
-0.275111
2.32597
-0.318744
3.06446
-0.0741581
3.06446
2.06815
0.0530865
-2.06815
0.143961
-4.12482
-0.142279
-4.12482
5.24399
-0.192958
5.24399
-3.35844
-0.121886
3.35844
-0.051387
-0.0201243
11.1211
-5.16404
0.0131866
5.16404
-11.199
11.2122
-2.32668
0.526596
2.32668
0.927195
5.27803
0.25827
-5.27803
0.249897
5.53154
-0.0336764
-5.53154
0.0689285
-3.57308
-0.149297
-3.57308
-4.46114
-0.325159
4.46114
-0.337301
-11.4371
-0.214161
11.6513
-11.3807
5.99455
0.148117
-5.99455
11.3603
-2.82577
-0.164529
2.82577
-0.224689
3.2434
-0.178947
3.2434
3.98219
-0.181305
-3.98219
-0.142627
-5.33937
-0.0534078
5.33937
-0.0953793
-3.42071
-0.152369
3.42071
-0.177304
-4.17177
4.17186
2.01019
-3.30696
-3.31485
-7.538
1.79757
1.9821
4.25531
-6.9819
-4.39459
-6.91071
7.3079
-7.05801
-8.87776
9.05666
7.23525
-7.52497
-5.82492
5.79077
6.3735
-6.38046
1.83311
1.92474
10.7241
-10.6302
-10.0841
9.94293
10.1809
-10.1674
10.4916
-10.5541
-12.1663
12.1326
-5.65813
5.67933
-6.59381
6.57629
-6.65522
6.60384
-3.29801
-3.23563
9.01236
-8.89674
11.6654
-11.6426
-11.2627
11.5431
3.30852
0.863346
3.31895
-1.95226
3.78537
-1.84091
3.8511
3.28058
-6.57859
3.28231
-6.59717
5.97202
5.69334
-5.99037
-1.54763
-5.88878
5.85669
-5.79755
5.78932
10.5248
-10.866
-1.86662
3.79136
-1.88013
3.86223
-3.37365
-2.45127
3.33225
0.923056
5.51035
3.50201
-5.61774
-1.29297
-7.56736
7.38606
-7.73994
7.56788
-0.583566
5.90138
-5.31781
4.2683
-1.60492
7.5063
5.70298
5.9592
5.89455
-5.63628
1.16345
-6.48127
-6.34282
-2.57392
2.70718
2.5782
-2.42694
6.00244
1.23281
5.72938
-5.39201
-2.13295
-5.53429
3.84565
1.94512
3.81044
4.08138
2.29212
4.07242
3.05228
-3.06723
0.0149545
-3.05814
6.11042
0.724122
-5.50941
-4.58636
6.95901
3.76505
7.06503
-7.26599
-3.36419
-7.08061
-6.03989
-4.04421
-6.36505
6.45338
3.48955
6.32981
-7.82553
7.73015
6.72466
3.45628
6.71021
-6.83813
-3.32932
-6.78233
10.1928
-2.65416
-7.53861
-6.78031
-5.38601
6.82295
3.66865
7.40051
4.73214
7.46944
3.51949
6.67327
-7.18814
1.80213
-3.80107
-1.85706
-3.76506
3.62642
2.05291
3.62992
-4.18481
-2.40901
-4.20016
-4.18201
-2.47321
4.2672
2.30909
-4.25199
-3.48795
4.37388
2.22996
2.93039
-7.32498
3.62105
-6.85669
-6.27009
-2.62665
-6.19633
4.00329
2.51502
-6.51831
-2.5753
10.7201
-5.02676
9.17247
-7.21971
-4.42285
-7.25662
-8.66498
-2.59769
-8.65076
-5.36759
5.21829
-5.48077
5.21076
10.4212
-5.77081
-4.6504
-3.90279
-2.47767
3.92826
-0.609309
-3.76473
3.77968
0.0206412
3.87174
4.73509
4.12578
-3.84389
-1.95366
-3.81934
3.82802
1.96131
3.81592
8.52092
2.00386
8.20286
-7.10372
-3.76229
-7.61653
5.98199
-6.0404
2.98709
-2.97996
5.07601
2.49187
-4.92751
-2.63985
5.90037
-2.97444
-2.92593
-12.7934
10.8116
1.98184
-5.2871
-1.0188
-0.10081
-5.45742
-3.42034
5.18754
0.771665
11.5832
8.16289
-5.52506
5.76915
6.12622
6.20996
-0.132864
4.27465
-3.74806
3.22399
-0.679208
-2.54478
5.58979
-5.94462
-2.02674
-5.36391
3.33717
-0.215237
2.26374
-1.915
-2.0881
-0.485819
-1.94414
1.66239
0.915812
1.78789
0.929728
1.77745
-2.75005
0.543226
2.20682
-1.82032
-1.88371
-3.5374
-0.68405
4.22145
5.48013
1.90593
-5.3375
-0.19679
2.76285
-2.70256
-0.856371
-2.68103
1.81137
-2.66774
-3.12746
-1.97535
5.10281
-3.34141
-0.477931
3.33205
0.478391
-3.76464
-2.12413
3.76033
0.312086
-2.99276
6.04708
-3.05432
-4.94642
2.59005
3.52037
4.53517
-4.6947
2.35761
2.33709
-1.17434
6.00627
1.05877
6.03975
-9.03017
5.66598
7.66877
3.87437
-7.8933
0.812694
-8.21748
9.55138
-8.29288
-1.2585
4.91182
4.63956
5.28279
5.13842
-3.67369
8.95648
-1.17382
-7.11906
9.3913
-5.51693
5.75848
-11.2754
-10.8969
3.77784
-6.72193
8.33142
-1.60949
-2.43472
-5.39081
9.15665
-0.746034
-8.41061
5.58377
-5.27872
-5.35771
10.6364
-7.93288
8.68703
-2.53896
-6.14807
-6.56139
-3.99266
6.6148
1.11535
-9.71709
11.5192
-3.04382
5.82469
0.885524
5.83975
3.82835
-5.91284
2.08449
4.10453
-6.64349
2.40991
-8.32274
-4.834
9.4576
-4.6236
-7.46065
-6.52234
-0.938308
2.00656
9.51266
-6.73869
5.22772
1.51098
3.28906
0.526864
-3.34097
-0.424087
0.325083
4.37089
-4.69597
3.955
4.02766
3.43203
0.938857
3.82488
2.03181
-3.84818
-0.351986
-3.88889
1.41568
-1.5798
-3.44172
4.8574
-3.8387
0.396978
-2.6623
-3.40725
6.06955
-4.51936
2.98363
3.06345
4.94494
-4.75174
1.3445
-2.40279
-2.34895
2.4942
-4.074
1.88907
2.96832
4.11903
0.631083
4.84279
4.61481
-7.35781
0.501129
8.11682
-6.82385
1.62585
5.84359
-6.85357
0.331228
-5.8651
1.1226
-6.14936
-5.39571
6.16776
-8.76545
-5.10765
7.88735
0.315512
-7.68415
-0.966604
-3.79116
-1.57643
-3.94353
-1.65082
-3.82995
-5.32451
-1.25689
-4.06762
3.9614
-4.12458
-2.24047
4.46188
0.748881
-4.69923
4.5347
-4.62692
4.44798
0.191101
3.58858
4.31688
1.83921
-2.41425
4.25345
-6.81562
8.81948
-10.143
3.32737
3.63054
-7.39282
-6.51244
3.61625
2.36574
3.31668
6.02208
-7.61593
1.59385
-6.62906
7.47856
-0.849499
-10.0884
3.45931
-4.0663
2.73805
0.249036
2.71432
0.695548
2.27955
-2.9751
-2.28441
-2.32248
-2.21708
-3.18527
5.40235
1.06601
-3.21
2.144
-3.21868
4.28469
-0.231985
-2.97802
5.08738
-2.80783
5.33642
-3.45067
1.88575
3.09254
5.1951
-2.10255
4.11451
-1.62264
1.7106
-3.81316
-1.47466
-2.91119
4.9641
-3.15836
3.55534
-0.26813
3.82347
-3.98136
1.00691
-0.549327
3.47834
3.64887
4.0052
-3.06635
2.73389
-4.35652
-1.07927
-3.72544
-0.757118
-1.84849
-4.75113
6.59962
4.94086
-6.78935
-3.85759
6.57672
-2.71913
5.4725
-4.55724
-0.915258
-2.92195
-3.11845
2.77112
1.50354
6.97604
-0.153109
-4.40413
-3.90117
-2.97397
3.26362
-0.0396268
-3.33983
5.32167
3.44064
-1.17691
0.449763
1.33813
1.82107
-1.37131
0.435694
1.38538
-1.4793
2.03848
0.724365
-2.09157
0.147431
-1.22919
3.04056
0.977631
-1.89344
0.522132
1.80759
-2.48679
4.19657
-1.51798
-2.67859
6.00415
1.65009
-3.16807
3.71381
-3.92905
2.33519
-3.01924
-0.832885
-4.76194
-3.52913
-2.30418
4.44818
-3.09817
5.0041
1.32072
-4.80731
6.12803
-3.38634
1.41099
-2.82261
3.54697
-0.898344
-1.92426
2.57183
2.53098
-2.70334
0.0223179
-0.131511
2.11012
-2.24163
-0.557619
-2.37794
-4.41166
4.72375
-2.13392
4.49153
2.11954
-1.9263
6.41783
1.80358
-3.72989
-3.14284
-3.62077
-1.39279
3.14238
-0.889082
-5.89325
-7.03715
5.89693
0.142828
-8.9428
10.0691
-1.12635
-5.17774
-0.48824
5.40006
-7.31211
0.668623
-4.90221
5.16694
6.2257
6.36853
-8.24619
-0.164421
-4.75664
1.18338
-5.94002
5.82294
-2.67797
6.4558
-7.02739
4.78693
-6.27851
5.1973
-0.742719
5.45109
-3.3666
2.08751
-6.08017
-4.96482
6.97866
-3.52238
7.86419
-4.07023
11.9344
-7.11405
6.8533
5.08111
-1.40689
-5.84973
-6.83196
5.42507
0.0213428
5.86109
4.78553
-2.75372
4.43355
2.04946
-4.45225
-2.02454
-6.27285
1.8206
-3.2094
-1.82899
3.64959
3.11595
3.64281
1.30064
-3.21872
6.51147
-7.44977
-1.88787
-3.50784
6.71891
-1.29383
3.8533
-7.36115
-2.29605
5.32258
-0.804187
-4.51839
0.448235
-5.55588
2.5979
-8.15378
6.16755
-7.13415
1.39656
-5.46286
-3.30267
-3.52736
-1.32952
-3.29741
-4.62245
3.29293
-1.16313
3.37156
-5.39498
4.59079
-2.08359
5.37652
-3.40045
-0.543074
3.57776
0.870217
6.24674
-1.25371
-5.25874
0.0466232
4.80731
-4.85393
3.31024
-6.00484
-1.19753
2.99302
3.01114
-6.33019
-1.06264
-6.32138
-2.74341
5.10915
3.83331
8.77418
1.15825
5.37863
-0.269487
6.53688
3.04719
2.72845
-3.73568
5.32953
2.86394
6.19131
-0.833944
2.71969
1.88037
1.90713
0.79543
2.22103
1.42785
3.22794
0.252842
-2.06963
4.41199
-7.38597
0.00785979
-6.31671
2.73995
5.78876
-3.04881
3.54986
-3.58948
-1.30407
0.717875
-1.00033
0.282454
-1.82691
-2.17724
-0.791857
-1.51764
2.03978
1.52292
-1.24792
-0.578988
0.17906
-3.70819
2.84018
-2.81786
-0.286886
5.84114
-2.41656
0.174928
-1.00557
-2.20301
-2.68883
2.5414
6.06753
0.350304
3.0132
5.07405
2.94992
0.196192
4.36976
-5.97925
-3.95298
-6.14368
-0.320732
5.07933
1.88032
7.63235
6.96143
5.6676
-1.69355
-9.14332
7.26785
-1.93832
6.41836
-1.89996
-6.25382
6.42461
2.39486
-6.74012
-0.394024
-6.64784
-8.58617
-0.462415
5.0532
-5.78432
5.24125
3.66482
0.402802
-2.78917
-0.738187
3.06428
-0.335836
6.20105
-2.20888
-7.12872
9.3376
-3.57988
3.58774
3.11219
2.20948
3.39465
-0.194836
-7.32356
-10.3724
-1.2016
-1.28519
-3.88019
0.34126
-1.86418
4.67079
-1.08305
3.75553
8.25456
6.95048
-2.22807
-4.56129
4.94719
-1.19166
5.75882
)
;

boundaryField
{
    wall-4
    {
        type            calculated;
        value           uniform 0;
    }
    velocity-inlet-5
    {
        type            calculated;
        value           uniform -3.75095;
    }
    velocity-inlet-6
    {
        type            calculated;
        value           uniform -5.62643;
    }
    pressure-outlet-7
    {
        type            calculated;
        value           nonuniform List<scalar> 8(6.55496 6.39545 6.53044 6.71972 6.54327 6.61112 6.54358 6.6148);
    }
    wall-8
    {
        type            calculated;
        value           uniform 0;
    }
    frontAndBackPlanes
    {
        type            empty;
        value           nonuniform 0();
    }
}


// ************************************************************************* //
