/*--------------------------------*- C++ -*----------------------------------*\
| =========                 |                                                 |
| \\      /  F ield         | OpenFOAM: The Open Source CFD Toolbox           |
|  \\    /   O peration     | Version:  4.0                                   |
|   \\  /    A nd           | Web:      www.OpenFOAM.org                      |
|    \\/     M anipulation  |                                                 |
\*---------------------------------------------------------------------------*/
FoamFile
{
    version     2.0;
    format      ascii;
    class       volVectorField;
    location    "3";
    object      U;
}
// * * * * * * * * * * * * * * * * * * * * * * * * * * * * * * * * * * * * * //

dimensions      [0 1 -1 0 0 0 0];

internalField   nonuniform List<vector> 
918
(
(0.974831 -0.0337558 0)
(0.00384507 2.96683 0)
(-0.0477795 1.73205 0)
(0.912763 0.053097 0)
(-0.0121629 1.70919 -3.35901e-21)
(-0.00679545 2.94871 -7.42937e-19)
(1.12943 1.58421 2.65912e-19)
(0.568687 0.307351 -3.87932e-21)
(0.995084 -0.000882466 0)
(0.0184795 1.75154 0)
(0.0141737 1.69249 0)
(0.923576 0.0230199 0)
(0.0150505 2.92813 0)
(-0.00300025 2.83612 0)
(-0.038135 3.08497 4.6281e-19)
(0.00266888 1.67259 -1.13483e-20)
(0.701533 0.143609 3.31311e-19)
(0.248622 1.98881 2.64298e-19)
(0.955543 0.0248244 0)
(0.0135784 1.7018 0)
(0.424105 0.340167 -2.13032e-19)
(0.952529 -0.0161765 0)
(0.94964 -0.0261757 0)
(0.970952 0.00870763 0)
(0.841981 0.0387516 0)
(0.04426 2.63032 0)
(-0.0292799 2.90883 2.34788e-19)
(-0.0117881 1.73574 0)
(-0.0054025 1.74302 0)
(-0.0068405 1.73289 0)
(0.00393653 1.78271 0)
(-0.0161797 1.72005 2.60856e-21)
(-0.0133503 1.68183 0)
(-0.0224779 2.98768 -2.56777e-23)
(-0.0170674 3.00574 5.91157e-19)
(0.00216313 3.00042 0)
(0.968861 -0.00102295 0)
(0.531862 0.682797 7.8817e-21)
(1.06431 1.62352 -2.2241e-19)
(1.22413 1.33887 2.74804e-19)
(0.917555 1.82863 -6.03485e-20)
(0.988881 1.81077 3.80178e-19)
(0.606043 0.324197 3.78265e-21)
(0.575345 0.294965 0)
(1.29834 0.681611 0)
(0.58879 0.34736 1.52772e-20)
(0.526286 0.343453 -1.58611e-20)
(0.960018 -0.016769 0)
(0.997182 0.00152567 0)
(0.996793 0.000947224 0)
(0.969833 -0.0540039 0)
(1.00097 -0.00420372 0)
(1.01096 -0.00118052 0)
(-0.0218452 1.60248 -2.11573e-19)
(0.00241047 1.79415 0)
(0.0429119 1.78812 0)
(0.0160383 1.78514 0)
(0.00667694 1.70191 0)
(-0.0090439 1.68309 0)
(0.00740287 1.73295 0)
(0.016561 1.68911 0)
(0.00526782 1.73122 0)
(0.00509991 1.69676 0)
(0.974914 -0.00309973 0)
(0.958268 0.00888656 0)
(0.928658 0.00544473 0)
(0.940039 0.00441526 0)
(0.924738 -0.0149584 0)
(0.0162023 3.00028 2.66174e-19)
(0.0134236 3.00604 0)
(0.00738225 3.00258 0)
(0.0153106 2.99498 2.93242e-24)
(0.0110238 2.95826 -4.02098e-19)
(0.0158073 2.97944 0)
(0.0126539 2.90434 0)
(0.00546308 2.95464 4.65962e-25)
(-0.0120528 2.85776 0)
(0.0270771 2.93935 0)
(-0.0140898 2.78833 0)
(0.135785 3.29365 0)
(-0.148972 3.32363 0)
(0.057201 3.15622 -4.26634e-19)
(-0.0184423 2.99626 0)
(-0.00335269 1.74404 0)
(-0.00405781 1.7229 1.11915e-20)
(0.00460406 1.68616 -1.10385e-20)
(0.740718 0.177801 -1.15624e-19)
(0.718427 0.121247 -1.15878e-19)
(0.720056 0.218008 -3.41454e-19)
(0.670683 0.196988 -2.20001e-19)
(0.194142 1.34377 0)
(0.358906 2.07089 -2.68093e-19)
(0.477011 2.05157 4.53636e-19)
(0.97915 0.00484032 0)
(0.939574 0.00504489 0)
(1.00447 -0.0028483 0)
(0.984433 0.0430147 0)
(0.98337 0.024479 -9.68688e-19)
(0.98929 0.0429421 7.32367e-19)
(0.0100768 1.73603 0)
(0.00949641 1.70746 0)
(-0.00338933 1.74401 0)
(0.0149854 1.73308 0)
(0.00272556 1.6957 0)
(0.367818 0.433532 5.55137e-20)
(0.500426 0.379976 0)
(0.986722 0.0266342 0)
(0.956632 0.0214361 0)
(0.938082 0.00411611 0)
(0.905962 0.0289117 0)
(0.904852 0.00607242 0)
(1.10024 0.00128569 0)
(0.841355 0.0563614 0)
(0.780607 0.00969185 5.07994e-19)
(-0.00085585 2.83947 7.96167e-20)
(0.047063 2.9261 0)
(0.0473162 2.89832 0)
(-0.0159549 2.72985 0)
(-0.0374655 2.98246 2.13161e-19)
(-0.0351582 2.8921 0)
(-0.0266715 2.98955 -6.80354e-19)
(-0.0175952 2.9319 2.33644e-19)
(0.00704625 1.76593 0)
(0.0071221 1.76274 0)
(-0.0108718 1.71965 -1.5851e-22)
(0.00686425 1.72153 0)
(0.00418875 1.67019 0)
(0.99364 0.00839473 0)
(0.973514 -0.00123109 0)
(0.944186 -0.00535922 0)
(0.993961 0.00968872 0)
(0.964723 0.0147151 0)
(0.649201 0.908397 -1.50053e-20)
(0.441772 0.776841 0)
(0.730483 0.95655 5.82817e-21)
(0.593895 0.792416 0)
(1.123 1.38976 -6.81984e-20)
(1.23873 1.07558 1.33861e-19)
(0.568446 2.07096 0)
(0.735059 1.98944 0)
(0.764704 1.98494 0)
(0.550572 1.19392 -1.37876e-19)
(0.63169 0.311981 0)
(0.614243 0.251029 5.72889e-20)
(1.19184 1.13383 0)
(1.24055 0.9337 0)
(1.27601 0.860938 -9.9832e-20)
(1.25463 0.728196 0)
(1.3072 0.466185 2.54473e-20)
(0.994839 0.00421397 0)
(0.985922 -0.00319971 0)
(0.965962 -0.00641332 0)
(0.982385 0.00978271 0)
(0.990199 0.00208517 0)
(0.953237 0.0126789 0)
(1.00011 0.00764628 0)
(0.99252 0.00123004 0)
(0.998307 0.0014792 0)
(-0.00338913 1.65103 1.12917e-19)
(0.0444233 1.59128 0)
(-0.00935255 1.6429 1.89449e-19)
(0.00757501 1.61465 -1.61478e-19)
(0.16215 1.95144 -2.17137e-19)
(0.0333768 1.84438 0)
(0.0919784 1.85189 0)
(-0.000308911 1.76385 0)
(-0.0314056 1.7075 0)
(0.00271072 1.71288 -4.98616e-22)
(0.00636533 1.66883 0)
(-0.00492597 1.71785 -2.60519e-20)
(0.00341551 1.69038 4.87997e-20)
(-0.016341 1.75792 0)
(0.0156418 1.74524 0)
(0.00234114 1.71008 0)
(-0.00234131 1.73363 0)
(-0.000159382 1.68966 0)
(1.01744 0.0152347 0)
(1.00436 0.0126434 0)
(1.00201 0.00322201 0)
(0.972882 -0.00153427 0)
(0.953041 -0.0137555 0)
(0.982252 0.00218579 0)
(0.959792 0.0155501 0)
(0.941217 0.00023183 0)
(0.0167774 3.0602 -2.10601e-21)
(0.0119108 3.05888 0)
(0.00881509 2.97049 0)
(-0.000923713 2.88481 0)
(0.642828 3.50812 0)
(0.932507 2.67139 3.44583e-19)
(0.0500075 3.0806 0)
(-0.00574007 2.92176 0)
(0.00142349 1.74897 0)
(0.00531878 1.7411 0)
(0.000670008 1.74486 0)
(0.00434456 1.77925 1.88042e-21)
(-0.00124667 1.7434 0)
(-0.0043798 1.76637 0)
(-0.00656487 1.68291 -9.69916e-22)
(0.00689228 1.72742 1.84443e-20)
(0.0121091 1.73747 1.12195e-20)
(0.0221357 1.69436 0)
(0.76647 0.124738 1.80627e-19)
(0.731732 0.0757807 -1.75394e-19)
(0.170868 1.40648 0)
(0.255769 1.33396 -8.76908e-20)
(0.13427 1.43326 -2.58203e-19)
(0.142603 1.40318 2.57719e-19)
(0.961592 -0.0139697 0)
(0.978935 -0.00890136 0)
(0.970987 -0.00736468 0)
(0.947772 0.0059955 0)
(-0.00138896 1.72627 0)
(-0.00565518 1.74117 0)
(-0.0105673 1.69786 0)
(0.556627 0.362823 1.26856e-19)
(0.528612 0.382557 -1.29604e-19)
(0.508102 0.355257 0)
(1.19892 0.0833549 9.5134e-21)
(1.20464 0.0290153 0)
(1.12077 0.0400048 0)
(1.05067 0.00354787 0)
(0.785594 0.103491 0)
(0.815538 0.053021 -8.14009e-19)
(0.758804 0.0345861 3.08529e-19)
(0.00845842 2.97616 1.28936e-19)
(-0.02416 2.84417 2.5167e-20)
(0.00171216 3.04847 -4.57554e-21)
(0.0152006 3.04114 1.78838e-19)
(-0.0187637 3.0008 7.82833e-21)
(-0.00770913 2.95376 -3.25911e-23)
(-0.0152484 3.01177 -1.53583e-19)
(0.0115206 3.02634 1.09347e-19)
(0.00680349 3.03118 -1.75615e-19)
(1.00683 0.014533 0)
(1.00525 0.00390336 0)
(0.958315 0.0249051 0)
(0.988907 -0.0142308 0)
(0.983718 0.00054697 0)
(0.956214 -0.00869489 0)
(0.979086 0.00267502 0)
(0.981609 0.00373209 0)
(0.954279 0.0101056 0)
(0.594767 1.00547 7.22985e-20)
(0.497036 1.04916 0)
(0.62537 1.0599 3.85177e-20)
(0.669138 1.17918 2.77143e-19)
(0.695192 1.07788 -1.46868e-19)
(0.63638 0.943292 2.75799e-19)
(0.462974 1.30751 6.68018e-19)
(0.485628 1.19756 1.34897e-19)
(0.693867 0.241399 2.33602e-19)
(0.6704 0.27853 5.61696e-20)
(0.659204 0.21883 1.12363e-19)
(1.27739 0.519528 2.72662e-20)
(1.30439 0.323365 2.85102e-20)
(0.0162921 1.67392 7.50121e-20)
(0.0260892 1.65543 0)
(1.06926 0.0241503 0)
(1.04385 0.0101973 0)
(1.01732 -0.00196036 0)
(0.0321715 3.07166 0)
(-0.0034966 2.95862 2.84293e-19)
(-0.00251519 2.96115 0)
(-0.012017 2.86906 -2.84353e-19)
(0.0284784 3.0896 6.19552e-20)
(0.0273854 3.07548 0)
(0.625997 1.29466 -6.53923e-20)
(0.860975 1.7976 9.55224e-20)
(0.57394 1.39893 -3.50216e-19)
(0.0359221 2.98448 -7.61071e-20)
(0.0467999 3.0157 0)
(0.00551898 2.86152 0)
(0.0062227 1.72853 -2.87102e-21)
(-0.0125969 1.73614 -3.5646e-20)
(0.00433308 1.70847 -1.79804e-21)
(0.24164 1.38963 2.77745e-19)
(0.333946 1.31079 -1.92585e-19)
(0.038536 1.60779 1.78727e-19)
(0.0787663 1.51625 -2.15766e-19)
(0.0836923 1.49407 2.38579e-20)
(0.0202097 3.10183 -3.70168e-19)
(0.0266241 3.10771 4.23854e-19)
(-0.0261741 2.97501 1.84561e-19)
(-0.0222775 2.96246 -1.50715e-19)
(-0.040303 2.861 -1.8808e-19)
(0.0248559 3.08775 -4.56377e-19)
(0.0216851 3.1 4.88974e-19)
(0.558304 1.28728 0)
(0.620534 1.24396 -6.47109e-19)
(0.610478 1.14168 2.90442e-19)
(0.434333 1.29684 3.76525e-19)
(0.462044 1.23506 -5.85841e-19)
(1.25698 0.183028 2.38415e-20)
(1.27719 0.344223 0)
(1.28625 0.139453 4.18824e-21)
(-0.00695086 1.70096 -6.70814e-22)
(0.00565741 1.70627 0)
(-0.00752687 1.66501 0)
(0.31316 1.3697 -9.81637e-20)
(0.376225 1.34776 -2.33882e-19)
(0.388806 1.27659 4.27733e-19)
(0.995829 -0.0352602 0)
(1.00847 -0.0621497 1.80678e-19)
(-0.0035429 1.76505 0)
(-0.00611251 1.7733 0)
(1.0236 0.0123427 3.71935e-21)
(0.984025 0.0160711 3.70989e-19)
(0.0149931 1.77877 -2.48251e-21)
(0.0155856 1.77927 0)
(0.0770851 3.21441 -5.93889e-20)
(0.199146 3.36867 0)
(1.07373 0.680094 -3.03144e-20)
(1.01035 -0.013251 -1.99459e-21)
(1.01007 0.0110215 0)
(1.01199 -0.00517004 -1.06021e-21)
(0.0614068 1.85448 0)
(0.0411947 1.67828 0)
(-0.00189356 1.78915 0)
(0.0184035 1.7475 3.76619e-20)
(0.0199304 1.7584 1.9384e-20)
(0.985479 0.000694502 5.98744e-22)
(1.04227 0.00634022 0)
(1.05473 0.0195297 0)
(0.00744856 1.7454 0)
(-0.0201289 1.77881 0)
(-0.0018279 1.77827 0)
(0.268725 1.95647 -9.76013e-20)
(0.973739 -0.0188564 0)
(0.983891 -0.0149916 0)
(1.0133 -0.0106801 2.34376e-19)
(1.02646 -0.0138167 -2.71862e-19)
(1.02642 -0.0208089 0)
(-0.00494445 1.75415 0)
(0.00186 1.75692 0)
(0.000927988 1.74844 0)
(-0.00136347 1.78177 0)
(-0.000257962 1.77338 0)
(-0.00427117 1.77672 0)
(1.023 0.00904057 0)
(1.0154 -0.012259 -1.48492e-21)
(0.814164 1.56932 1.11266e-19)
(1.00718 -0.00975548 -2.3104e-19)
(1.03521 0.0156861 2.78969e-19)
(1.00631 0.00196617 0)
(1.00844 -0.00571833 2.222e-19)
(0.992475 0.0201921 -2.76418e-19)
(0.998392 0.0160893 0)
(-0.0134384 1.77822 0)
(0.00664866 1.77172 5.30613e-21)
(0.00136793 1.77503 -3.37971e-21)
(1.16317 0.255468 2.10674e-19)
(1.08933 0.0576959 0)
(0.173284 3.10638 -1.33633e-19)
(0.069885 2.8688 -1.56984e-20)
(0.131236 3.24864 -4.82543e-20)
(0.112113 3.24909 4.76626e-20)
(0.104192 3.25455 0)
(0.0313977 3.15822 1.48564e-20)
(0.0791401 3.15965 1.35292e-19)
(0.0921221 3.21085 -3.87067e-20)
(0.0788765 3.1146 0)
(0.690832 0.333305 0)
(0.609544 0.404798 0)
(1.04039 0.69748 7.79249e-20)
(1.12141 0.847759 -8.75683e-20)
(1.08889 0.574193 0)
(1.17768 0.50293 0)
(1.01848 -0.00399088 -4.24215e-19)
(1.01276 -0.00879838 5.28181e-19)
(1.01394 0.0170686 0)
(1.0136 0.000758063 0)
(1.00391 0.0152116 0)
(1.01932 -0.00642715 0)
(1.01016 -0.00450582 0)
(1.03056 -0.0245992 0)
(1.02055 -0.00298703 0)
(1.02385 0.0127484 0)
(0.0621173 1.8529 0)
(0.0402421 1.85406 0)
(0.0619367 1.87291 0)
(0.0627981 1.89519 0)
(0.0717249 1.66121 0)
(0.0911626 1.66771 -1.22648e-19)
(0.0278482 1.7047 0)
(0.0330513 1.69874 6.52627e-20)
(0.0106556 1.74712 -6.79141e-20)
(-0.00858948 1.78458 0)
(-0.0137375 1.77844 0)
(0.0194586 1.79518 0)
(0.0134029 1.80531 0)
(0.00359822 1.74177 -2.53379e-20)
(0.0230204 1.75532 2.55899e-20)
(0.0116489 1.75882 3.31825e-20)
(0.0240422 1.7655 0)
(0.00255102 1.76795 -4.55417e-20)
(-0.0113524 1.76383 -2.58282e-20)
(0.00682819 1.73376 1.91384e-20)
(0.0157495 1.74228 -3.22097e-20)
(0.0163892 1.75318 -3.98623e-20)
(0.998267 0.00520376 4.00122e-19)
(1.0039 0.0019407 -4.97205e-19)
(0.989363 0.0102268 -4.07774e-19)
(0.951683 -0.00266634 5.23167e-19)
(1.03949 -0.00809426 0)
(1.05159 -0.00961044 0)
(1.04597 0.0231006 0)
(1.05328 0.0311205 0)
(1.0582 0.0302259 0)
(1.0831 0.0516284 0)
(1.06709 0.0398889 0)
(1.07437 0.0438451 0)
(0.00797695 1.76037 -1.22835e-21)
(0.0149929 1.73708 0)
(0.0146529 1.74022 0)
(-0.017749 1.77725 9.35217e-21)
(-0.0213808 1.77955 -2.664e-22)
(-0.0123931 1.72907 6.48326e-21)
(-0.00441497 1.75647 -6.50498e-21)
(0.0143593 1.76487 0)
(0.00967827 1.75779 0)
(0.00273917 1.75977 0)
(-0.00401415 1.77604 0)
(-0.0139583 1.77146 0)
(0.408167 1.9354 1.52237e-19)
(0.422452 1.94493 8.13084e-20)
(0.270165 1.50248 -6.80142e-20)
(0.152149 1.52739 1.79544e-19)
(0.307215 1.65477 4.46558e-20)
(1.00971 0.00129063 0)
(0.994252 -0.0012625 0)
(1.00734 0.0131967 0)
(1.02216 -0.0122819 0)
(1.01312 -0.0102328 0)
(1.00064 -0.0062602 0)
(0.982885 0.0424024 0)
(1.01985 0.0556001 0)
(1.00701 0.000188603 4.05873e-19)
(1.01553 0.0129632 -5.12226e-19)
(1.01267 -0.0149356 -3.99413e-19)
(1.00685 -0.0097038 5.07131e-19)
(0.804571 1.64938 0)
(0.720321 1.75566 1.19179e-19)
(0.89269 1.50229 2.92023e-20)
(0.927149 1.43082 -3.88577e-20)
(0.888633 1.71332 7.26093e-20)
(0.847384 0.121243 1.93059e-19)
(1.1013 0.0936621 0)
(1.14702 0.159887 -1.70074e-19)
(1.13319 0.121341 -6.8852e-21)
(0.954725 0.139994 0)
(0.171852 3.20694 -2.25554e-19)
(0.251285 3.00465 -2.44162e-20)
(0.256415 2.30149 1.14721e-19)
(0.322341 0.378373 -2.53608e-21)
(0.130398 3.35719 -2.30329e-19)
(0.104357 3.30519 0)
(0.119299 3.28017 2.84452e-19)
(0.125912 3.23248 5.0627e-19)
(0.154802 3.27273 0)
(0.0124359 3.11847 8.67122e-21)
(0.0335073 3.12551 -1.22591e-19)
(0.0341519 3.11847 1.79827e-19)
(0.0461018 3.14119 0)
(0.0560084 3.16287 0)
(0.82478 2.01918 0)
(0.153846 0.664034 -7.77831e-20)
(1.09231 1.1319 1.70749e-20)
(0.937463 1.23565 0)
(0.71583 1.09198 -6.59236e-20)
(0.960089 0.990228 1.06916e-20)
(0.574897 0.548518 5.87065e-21)
(0.690706 0.334651 -7.81574e-21)
(0.6868 0.321436 1.18758e-19)
(0.607203 0.399096 6.07835e-21)
(0.600874 0.400435 -2.38055e-19)
(0.691792 0.343001 0)
(0.67462 0.399635 1.70875e-19)
(0.679078 0.385432 0)
(0.632369 0.391202 0)
(0.646061 0.342833 0)
(0.658186 0.650812 1.35453e-19)
(1.1635 0.280605 -1.74936e-19)
(1.17657 0.386501 0)
(1.18366 0.363295 0)
(0.778238 0.229773 1.93288e-19)
(0.717268 0.518565 -1.11771e-19)
(0.678396 0.466461 1.99005e-19)
(0.84743 0.414613 -2.29736e-19)
(1.00932 0.0223208 2.78262e-19)
(1.01287 -0.00212066 -2.85403e-19)
(1.01207 0.0202528 0)
(1.01802 0.00122415 0)
(1.02419 -0.0228991 -2.61429e-19)
(1.02089 -0.0138549 2.56813e-19)
(1.00119 -0.00330148 0)
(0.999883 -0.00495173 0)
(1.01822 -0.00693042 0)
(1.017 -0.00807076 0)
(0.996706 -0.0127799 0)
(0.998776 2.31701e-06 0)
(0.0283248 1.84567 0)
(0.019043 1.83447 0)
(0.0604067 1.80548 5.0222e-21)
(0.264138 1.92638 4.8821e-20)
(0.0986913 1.91234 1.04687e-19)
(0.146608 1.93769 -1.69506e-19)
(0.141113 1.84673 0)
(0.135786 1.75624 -4.08173e-20)
(0.127036 1.78216 0)
(0.290376 1.691 -6.43965e-20)
(0.229771 1.637 2.15078e-19)
(0.16709 1.77539 3.56068e-20)
(0.263136 1.87673 1.55446e-20)
(0.20313 1.84823 -1.24954e-20)
(0.338384 1.77304 -4.44302e-20)
(0.251472 1.71979 0)
(0.278248 1.72989 4.05539e-20)
(0.0197793 1.73291 -1.98258e-20)
(0.0327274 1.74293 0)
(0.0807208 1.72767 7.40682e-20)
(0.0381042 1.72818 0)
(0.0525701 1.72333 -7.41298e-20)
(0.0463876 1.74517 0)
(0.0178037 1.7674 -1.65904e-20)
(-0.00165085 1.77164 0)
(0.013278 1.76302 0)
(0.0283909 1.76212 1.84657e-20)
(0.0137891 1.75386 -2.06515e-21)
(0.00391028 1.75586 7.94922e-20)
(0.0118293 1.75323 5.5864e-22)
(0.0179628 1.7319 1.7433e-20)
(-0.00861596 1.73659 1.13109e-20)
(-0.00522415 1.77945 0)
(0.0111737 1.77131 0)
(0.0190976 1.7455 5.2087e-20)
(0.0199877 1.74703 4.03065e-20)
(-0.000125623 1.75535 -5.60401e-20)
(0.0256655 1.74483 0)
(-0.0149389 1.76954 -2.4871e-20)
(0.00335648 1.7768 1.40819e-20)
(0.0242251 1.76767 -4.95526e-21)
(0.0222977 1.72626 -2.12832e-20)
(-0.00960737 1.74826 -7.76726e-21)
(-0.00333372 1.74961 3.08763e-20)
(1.0085 0.00261979 -2.73269e-19)
(1.00072 0.0273352 2.66524e-19)
(1.00193 0.0268763 0)
(0.978483 0.0385001 3.65514e-19)
(0.939967 0.0425825 -4.18215e-19)
(0.929214 0.0431768 4.65499e-19)
(0.968521 0.0350807 -4.86779e-20)
(1.03496 0.00047256 0)
(1.04516 -0.016766 2.51665e-19)
(1.03312 -0.018155 -2.53229e-19)
(0.994399 0.0245067 -1.43774e-20)
(1.01638 0.0210305 1.21289e-19)
(0.988889 0.0539703 0)
(0.990794 0.0480514 -4.45217e-20)
(1.0074 0.0437624 0)
(1.00118 0.0377553 0)
(1.00913 0.0186142 0)
(1.00746 0.0178488 0)
(1.01626 0.0379698 8.97731e-20)
(1.00172 0.00164176 -2.00976e-19)
(0.956227 0.00782394 -9.58955e-20)
(0.982777 0.0230896 -1.0557e-19)
(0.994286 0.0610713 2.08216e-19)
(1.04283 0.0653518 0)
(1.02365 0.0669714 0)
(-0.0218616 1.76964 -1.63152e-20)
(-0.0229667 1.75856 -1.07319e-21)
(-0.0239082 1.76432 0)
(-0.0156762 1.77553 1.65896e-20)
(0.0184239 1.76453 2.1995e-21)
(0.00304072 1.77415 -1.63756e-21)
(0.0021982 1.76952 2.14778e-20)
(0.0242164 1.7603 -1.46386e-21)
(0.00198806 1.74918 7.62889e-21)
(-0.00697687 1.78314 -1.19151e-20)
(0.00621689 1.77102 1.45735e-20)
(0.020397 1.73347 9.17977e-23)
(-0.00707567 1.71206 7.07452e-21)
(0.383078 1.81818 -5.78134e-20)
(0.343202 1.77879 5.19121e-20)
(0.701348 1.80749 -1.15175e-19)
(0.559648 1.89226 -7.81999e-20)
(0.596466 1.86661 0)
(0.315117 1.5041 7.04099e-20)
(0.338034 1.5054 9.91348e-20)
(0.181872 1.52771 1.56607e-20)
(0.197314 1.52652 -2.48551e-19)
(0.221313 1.52748 2.04725e-19)
(0.235718 1.52538 0)
(0.179266 1.52267 -1.53698e-19)
(0.13432 1.61836 3.17323e-19)
(0.170573 1.56843 -1.76464e-20)
(0.126981 1.61001 -4.22774e-19)
(0.602112 1.45811 3.96804e-19)
(0.494094 1.47153 0)
(1.01784 -0.000468197 8.47263e-21)
(1.02261 0.0535654 -7.19788e-21)
(1.00321 0.00411361 -1.31217e-19)
(1.00245 0.0075336 1.33269e-19)
(1.00092 0.0241939 0)
(0.651109 1.63176 0)
(0.559451 1.52083 0)
(0.696937 1.32077 0)
(0.516592 1.46924 0)
(0.888774 1.65823 5.35917e-20)
(0.957974 1.5328 0)
(0.623856 1.63879 2.8774e-21)
(0.491564 1.56951 0)
(0.56944 1.52677 -2.80454e-19)
(0.59505 1.54735 1.79326e-19)
(0.859593 0.142089 0)
(0.82234 0.146538 5.30664e-20)
(0.889408 0.103475 3.04879e-19)
(0.855288 0.107991 -1.1276e-19)
(0.862207 0.0731241 -3.53067e-19)
(0.990122 0.204901 -2.99129e-19)
(0.923294 0.266042 -6.19644e-21)
(0.846749 0.258928 2.65807e-19)
(0.913878 0.221222 2.47651e-19)
(0.91056 0.121897 -3.98666e-19)
(0.895585 0.168186 4.90706e-20)
(0.821677 0.247023 -1.11358e-19)
(0.873239 0.216118 0)
(0.956578 0.146632 1.98944e-19)
(0.953736 0.15922 0)
(0.939543 0.216833 0)
(1.05 0.127151 9.84008e-20)
(0.963461 0.180152 -4.23963e-21)
(0.982643 0.185329 -5.44824e-20)
(1.02005 0.202198 0)
(1.00557 0.048089 2.04745e-19)
(1.00346 0.0391102 2.52214e-19)
(1.00811 0.0468032 -1.99151e-19)
(1.00751 0.0555397 -1.70898e-19)
(0.980898 0.0613724 -2.60862e-19)
(0.96476 0.105136 0)
(0.960402 0.0371158 0)
(0.920264 0.0701614 -1.6471e-19)
(0.910419 0.0621918 6.3371e-20)
(1.00384 0.0678068 2.31355e-19)
(0.993071 0.090054 -2.79744e-19)
(0.979617 0.110696 2.47053e-19)
(0.965686 0.113084 0)
(0.986693 0.072344 0)
(0.990442 0.0670309 -1.15002e-19)
(1.00039 0.0747083 -1.89819e-19)
(0.492948 1.66358 1.15521e-19)
(0.521357 1.81132 -1.3146e-19)
(0.755777 1.9447 -1.25691e-19)
(0.720845 2.42791 -4.19574e-22)
(0.890886 1.91331 -1.00291e-20)
(0.904223 1.99607 -7.60388e-20)
(0.886991 1.61196 4.30994e-21)
(0.734486 2.24065 -5.91713e-20)
(0.822373 2.10501 1.42884e-19)
(0.732992 2.65638 -7.20584e-20)
(0.892737 2.33026 7.92723e-20)
(0.83879 2.33714 0)
(0.04998 0.801789 -1.93155e-20)
(0.251091 1.79737 -1.13412e-19)
(0.856114 0.404725 4.0644e-20)
(0.717701 0.346988 5.09094e-20)
(0.592906 0.413586 1.3097e-19)
(0.594147 0.404524 -1.77756e-19)
(0.571107 0.396403 1.18116e-19)
(0.624013 0.405738 -3.8205e-20)
(0.573821 0.432281 1.39299e-19)
(0.777771 0.261967 -1.10582e-19)
(0.720155 0.303299 0)
(0.741701 0.257433 3.74045e-21)
(0.599762 0.458594 9.03421e-20)
(0.613674 0.421956 -3.30986e-19)
(0.57731 0.387428 -4.69613e-21)
(0.597039 0.412992 0)
(0.363543 0.817429 1.16508e-19)
(0.67434 0.874276 1.70914e-19)
(0.55332 0.911592 -1.93999e-19)
(0.688226 0.888207 -6.59559e-20)
(0.817826 0.916807 -2.00949e-20)
(0.809728 0.937225 2.05513e-20)
(0.759351 0.606406 -2.30184e-19)
(0.777131 0.717942 6.15053e-20)
(0.88478 0.775658 0)
(0.863086 0.731844 -7.68221e-20)
(0.910456 0.289526 7.28533e-20)
(1.05654 0.295487 1.01829e-19)
(1.01034 0.238094 1.18639e-19)
(0.890528 0.393543 -1.49488e-19)
(1.00554 0.393728 0)
(1.00707 0.398326 0)
(0.839615 0.355463 4.26041e-21)
(0.781622 0.280293 0)
(0.78992 0.278111 1.27127e-19)
(0.867738 0.267181 -6.78636e-21)
(0.840138 0.40619 6.39228e-19)
(0.825095 0.461457 1.7322e-19)
(0.817618 0.416725 -1.75004e-19)
(0.728962 0.388054 1.84676e-19)
(0.729032 0.397822 1.03713e-19)
(0.698704 0.408124 -1.02159e-19)
(0.982553 0.0202633 2.24187e-19)
(0.998679 -0.0157006 0)
(1.01619 -0.00630604 1.46047e-19)
(0.99307 0.00634597 -3.31128e-19)
(1.01122 -0.00707773 1.58884e-19)
(1.01885 0.0251587 -3.39274e-19)
(1.00798 -0.000364425 0)
(0.991449 -0.0139358 -6.99103e-20)
(1.00911 0.0178161 1.77142e-19)
(1.00602 0.0107809 -9.08367e-20)
(0.989217 -0.0126875 6.62546e-20)
(0.0172837 1.80421 0)
(0.0120619 1.77284 0)
(0.013882 1.82397 0)
(0.0144564 1.81215 0)
(0.0653145 1.76546 3.12365e-20)
(0.0642312 1.77106 -1.51892e-20)
(0.0910675 1.7715 -1.0996e-20)
(0.0612922 1.75349 -1.02713e-20)
(0.0449371 1.76174 -3.47455e-20)
(0.0405399 1.76721 2.59468e-20)
(0.0542859 1.78177 -1.2862e-20)
(0.0401978 1.7988 -2.22421e-21)
(0.0266174 1.77722 -7.42315e-22)
(0.0095332 1.7685 -3.87011e-21)
(0.0789852 1.72875 -8.00116e-20)
(0.0703207 1.71562 0)
(0.0846411 1.69886 4.86168e-20)
(0.107707 1.77337 2.96504e-20)
(0.198264 1.68231 -3.72562e-20)
(0.179642 1.65024 0)
(0.200464 1.61294 -2.25662e-19)
(0.230279 1.6391 1.59848e-19)
(0.1268 1.70045 -9.50884e-20)
(0.106961 1.67411 5.50953e-20)
(0.0801304 1.64306 0)
(0.0156397 1.73814 -6.10479e-20)
(0.00981844 1.75299 -7.13395e-20)
(0.00904697 1.73651 0)
(0.0109994 1.74425 -2.06692e-21)
(0.0112934 1.73047 3.06104e-20)
(0.0037543 1.78577 1.35842e-21)
(0.00695824 1.78541 -2.05396e-20)
(0.000223915 1.78161 -1.29825e-21)
(-0.00217772 1.76513 1.54191e-20)
(0.0214547 1.7742 0)
(0.0086555 1.78684 0)
(-0.0138313 1.76982 1.15987e-20)
(-0.00925379 1.78151 -3.96005e-21)
(0.00521756 1.78321 0)
(0.0124928 1.77088 8.36585e-21)
(-0.00409374 1.76701 -1.66998e-20)
(0.978365 0.0209566 0)
(1.01334 0.0481561 -2.30301e-20)
(1.00811 -0.00316195 -1.56009e-19)
(0.976134 0.00392316 0)
(1.01026 0.0230947 0)
(1.00438 -0.0134905 -7.50801e-21)
(0.978991 0.00427016 2.63922e-19)
(0.996159 0.00596453 3.20096e-19)
(0.996289 0.0190021 0)
(0.998699 0.00957232 0)
(0.999315 0.00188053 1.61725e-19)
(1.00712 0.00968 0)
(0.998637 0.0136238 0)
(0.0388627 1.76144 0)
(0.00301588 1.70986 -7.91126e-22)
(-0.00452364 1.76612 5.17691e-21)
(-0.0140705 1.7721 0)
(0.0107428 1.69811 1.03122e-20)
(0.00734189 1.72654 -1.4393e-21)
(-0.010486 1.77687 0)
(0.407733 1.67393 0)
(0.335905 1.7237 -1.13053e-19)
(0.357023 1.6906 0)
(0.479528 1.76293 9.0176e-20)
(0.482384 1.81266 0)
(0.44302 1.79343 -2.01389e-20)
(0.629084 1.5058 -8.2923e-21)
(0.659588 1.47065 -4.64795e-19)
(0.712194 1.46173 5.55436e-19)
(0.497261 1.48877 1.10501e-19)
(0.509797 1.52273 0)
(0.526077 1.50452 0)
(0.561525 1.48459 0)
(0.512067 1.47416 -4.0709e-19)
(0.365934 1.5463 -2.04632e-19)
(0.464647 1.5221 -5.20344e-20)
(0.477267 1.52715 4.24669e-20)
(0.382412 1.49138 0)
(0.471022 1.48473 0)
(0.427362 1.48616 -1.18834e-19)
(0.443673 1.52705 0)
(0.39988 1.46045 0)
(0.024465 1.49412 -2.75757e-19)
(0.196001 1.08707 -2.12491e-20)
(0.378124 1.64503 0)
(0.186289 1.67752 4.399e-19)
(0.59389 0.981368 -6.88982e-20)
(0.649833 1.1952 0)
(0.653971 1.12205 1.07631e-19)
(0.382435 1.29243 0)
(0.393744 1.16172 0)
(0.867859 1.7048 -1.17219e-19)
(0.774755 1.87298 -1.14855e-19)
(0.665782 1.75743 2.20534e-19)
(0.679205 1.69436 -6.79752e-20)
(0.883478 1.61498 0)
(0.821319 1.55297 8.82304e-20)
(0.94856 1.4831 -1.28477e-19)
(0.907575 1.45652 -6.95221e-21)
(0.575267 1.62391 0)
(0.522114 1.66496 -1.00165e-19)
(0.523858 1.62572 0)
(0.83996 0.215571 0)
(0.821274 0.158394 0)
(0.784043 0.185823 0)
(0.819703 0.221158 -2.00754e-19)
(0.786466 0.224826 1.17218e-19)
(0.906413 0.0505136 -1.30182e-19)
(0.930302 0.0822676 0)
(0.897633 0.090957 5.81034e-20)
(0.873342 0.051432 2.2888e-19)
(0.880495 0.0487167 -1.46726e-19)
(0.643944 2.92013 -2.56575e-19)
(0.670619 2.83941 0)
(0.666939 3.03922 -7.33745e-19)
(0.200301 3.31228 5.76803e-19)
(0.20208 3.05978 2.12166e-19)
(-0.197925 1.16588 3.31116e-20)
(-0.220431 1.53934 0)
(0.0516755 0.436282 7.20997e-21)
(0.159902 0.449053 1.27512e-19)
(0.612128 0.185039 -2.28842e-20)
(0.68104 0.401629 -1.05095e-20)
(0.612034 0.443026 9.41194e-20)
(0.606205 0.455143 0)
(0.510221 0.418804 0)
(0.590246 0.365718 0)
(0.905423 0.60898 4.29867e-20)
(0.812504 0.477902 -1.67741e-19)
(0.811956 0.563167 1.45743e-19)
(0.86472 0.469033 -1.33835e-19)
(1.04426 0.460427 0)
(1.03953 0.531834 -3.80297e-20)
(0.738586 0.35933 -2.50836e-19)
(0.740086 0.353227 -3.19898e-19)
(0.705415 0.386883 1.9378e-19)
(0.743568 0.343477 -1.91642e-19)
(0.770092 0.291723 -1.55665e-19)
(0.75314 0.314382 1.91599e-19)
(1.01194 -0.00423295 -1.66967e-19)
(1.01399 0.00129036 3.47041e-19)
(0.996806 0.0382368 2.14321e-19)
(1.00253 0.0411483 -2.57105e-19)
(0.969201 0.0182949 0)
(0.965261 0.000838721 -4.19064e-19)
(0.0482532 1.76016 1.11568e-20)
(0.0292832 1.73762 0)
(0.0769818 1.76638 1.00079e-19)
(0.0923016 1.77083 -8.77015e-20)
(0.0642448 1.73489 2.04615e-20)
(0.0399422 1.71391 0)
(0.037814 1.73616 0)
(0.0164941 1.77789 -1.75346e-21)
(-0.000793035 1.7589 1.57684e-21)
(0.0151578 1.72094 -2.11382e-21)
(0.0469104 1.75434 -6.76437e-21)
(0.0251197 1.73797 6.29019e-21)
(0.515287 1.61394 -2.82199e-19)
(0.492465 1.62796 3.00128e-19)
(0.498055 1.71283 -6.74997e-20)
(0.48477 1.66109 1.18277e-20)
(0.661478 1.67167 0)
(0.584965 1.76665 2.8e-20)
(0.616853 1.72828 -2.71622e-20)
(0.523284 1.74739 6.55234e-20)
(0.578246 1.64648 0)
(0.574855 1.64119 0)
(0.365109 1.52805 3.13282e-19)
(0.371649 1.47885 4.92936e-19)
(0.411566 1.51509 -3.36502e-19)
(0.299455 1.51729 -6.06153e-20)
(0.293228 1.52165 1.04234e-19)
(0.229539 1.514 -2.5942e-19)
(0.766524 1.4634 -3.09983e-19)
(0.859387 1.45426 0)
(0.814892 1.45666 -3.1375e-19)
(0.758359 1.51437 0)
(0.710486 1.50662 0)
(-0.065375 2.70119 1.66426e-20)
(0.373875 2.68905 4.74361e-20)
(0.244112 2.9259 -8.55311e-20)
(0.142275 1.68089 0)
(-0.0647243 1.29038 3.369e-20)
(-0.266922 1.36967 -9.4746e-20)
(-0.102189 2.71473 0)
(-0.0101317 3.01372 -1.53164e-19)
(0.0281079 2.98753 0)
(0.399576 0.561293 -2.50713e-19)
(0.591498 0.701971 3.47629e-19)
(0.654321 0.639924 -3.35255e-19)
(0.483101 0.49852 -2.75857e-20)
(0.601865 0.469631 -1.14286e-19)
(0.367841 2.53396 -3.55912e-20)
(0.405507 2.28622 -5.56171e-20)
(-0.0248625 2.50473 2.42347e-19)
(-0.0895886 2.29217 -1.81584e-19)
(0.507493 1.96508 -3.11102e-19)
(0.486322 2.14072 -6.98175e-20)
(0.581519 1.86937 1.48756e-19)
(0.0970732 2.24148 1.10404e-20)
(0.318386 2.09068 1.21441e-19)
)
;

boundaryField
{
    wall-4
    {
        type            noSlip;
    }
    velocity-inlet-5
    {
        type            fixedValue;
        value           uniform (1 0 0);
    }
    velocity-inlet-6
    {
        type            fixedValue;
        value           uniform (0 3 0);
    }
    pressure-outlet-7
    {
        type            zeroGradient;
    }
    wall-8
    {
        type            noSlip;
    }
    frontAndBackPlanes
    {
        type            empty;
    }
}


// ************************************************************************* //
