/*--------------------------------*- C++ -*----------------------------------*\
| =========                 |                                                 |
| \\      /  F ield         | OpenFOAM: The Open Source CFD Toolbox           |
|  \\    /   O peration     | Version:  4.0                                   |
|   \\  /    A nd           | Web:      www.OpenFOAM.org                      |
|    \\/     M anipulation  |                                                 |
\*---------------------------------------------------------------------------*/
FoamFile
{
    version     2.0;
    format      ascii;
    class       volScalarField;
    location    "16";
    object      p;
}
// * * * * * * * * * * * * * * * * * * * * * * * * * * * * * * * * * * * * * //

dimensions      [0 2 -2 0 0 0 0];

internalField   nonuniform List<scalar> 
918
(
0.225766
0.901914
0.00964371
0.224863
-0.000887285
0.869577
-0.846017
0.405798
0.205572
-0.291382
0.0214716
0.196366
0.7304
0.496164
-1.4634
0.00986064
0.362303
-0.71838
0.204925
0.00526467
0.480513
0.211985
0.215039
0.205533
0.265768
0.491577
0.610563
0.0059174
-0.00279954
-0.00149448
0.00401254
-0.00562694
0.00103396
0.752936
0.80355
0.826098
0.175891
0.0215483
-0.682512
-0.771635
-0.762891
-0.908261
0.396497
0.400854
-0.495869
0.409517
0.425723
0.193597
0.204895
0.205866
0.20694
0.205912
0.207336
0.208698
-0.348275
-0.396155
-0.209835
-0.148161
0.0588239
0.0225609
0.0165364
0.0276948
0.0244261
0.134716
0.193147
0.191386
0.202078
0.21149
0.840691
0.811711
0.837333
0.754303
0.769123
0.708091
0.679885
0.51709
0.538313
0.481802
0.469177
-1.89152
-2.85594
-0.871775
-0.614805
0.0012383
0.0166096
0.0214069
0.346395
0.354718
0.353825
0.367708
0.777212
-0.711761
-0.831572
0.204627
0.203572
0.211816
0.212138
0.209336
0.207396
0.0133487
0.0186853
-0.00631287
0.003491
0.00271522
0.459271
0.455404
0.207043
0.203608
0.218346
0.239036
0.229828
-0.0221512
0.277533
0.301246
0.288588
0.467344
0.46886
0.474589
0.58501
0.547592
0.648038
0.671628
0.00951006
0.00254649
0.00772636
0.00593081
0.00884369
0.171389
0.164583
0.187477
0.178856
0.181212
-0.0582348
-0.192426
0.112048
0.133095
-0.580383
-0.664697
-0.775946
-0.786115
-0.917393
0.221034
0.380845
0.385774
-0.499194
-0.428955
-0.575802
-0.341939
-0.420493
0.184894
0.191013
0.185465
0.200395
0.195296
0.196794
0.209167
0.206294
0.207759
0.230796
0.338197
0.105703
0.129589
-0.594889
-0.455419
-0.556115
-0.0855177
-0.0594317
0.0635445
0.0729103
0.0497853
0.0485733
-0.0277369
0.00701528
-0.0123227
0.0257077
0.0239834
0.128475
0.120304
0.143407
0.150016
0.184586
0.185881
0.188735
0.188168
0.630113
0.652773
0.661008
0.63433
-3.87796
-6.94292
-0.283527
-0.138967
0.0023444
0.00272377
0.0011003
0.00337115
0.00329865
0.00148022
0.027396
0.0258453
0.023815
0.0268106
0.329862
0.338639
0.732461
0.715198
0.703998
0.681989
0.192199
0.19486
0.200426
0.195952
0.0235381
0.0200093
0.0233625
0.423429
0.44167
0.441228
-0.0572668
-0.146227
0.0279644
0.0540265
0.317554
0.302319
0.321334
0.354183
0.389723
0.678168
0.69599
0.696388
0.704334
0.749361
0.762218
0.727959
0.154746
0.161523
0.158201
0.191927
0.188806
0.18979
0.183966
0.186918
0.183592
-0.365087
-0.729733
0.1954
0.200791
0.175315
0.179869
0.303814
0.366658
0.362797
0.370388
0.37575
-0.274153
-0.348029
0.109149
0.110789
0.0784426
0.108736
0.092428
0.601273
0.562549
0.612493
0.585781
0.546229
0.572681
-0.77293
-2.02397
-1.27725
0.228479
0.032475
0.124311
0.0440635
0.0274261
0.0346325
0.647741
0.734955
0.405778
0.572219
0.538282
0.431381
0.463665
0.521246
0.441507
0.478494
0.5163
0.496822
0.18329
0.188874
0.156572
0.43455
0.495282
-0.162371
-0.206741
-0.277232
0.0741983
0.0874877
0.0935228
0.696725
0.563637
0.646901
0.203259
0.203894
0.0126075
0.0248126
0.208064
0.208236
0.00651547
0.00693859
0.103855
-1.16976
-0.178559
0.196199
0.186827
0.203447
-0.373265
0.263769
0.0143122
0.0743634
0.0472927
0.195881
0.145156
0.111172
0.00675657
0.015898
0.0131185
-0.562738
0.20083
0.199048
0.203097
0.204095
0.204766
0.00807665
0.0105097
0.00725817
0.0102695
0.0109197
0.00746002
0.169525
0.183077
-0.497936
0.203102
0.205359
0.205176
0.198203
0.203706
0.201671
0.0141507
0.00878352
0.00798049
-0.0657067
0.0477497
0.363569
0.485509
0.313525
0.0817106
-0.168189
0.257881
0.327559
0.223709
0.392726
0.363161
0.396037
-0.116792
-0.271137
-0.110099
-0.167903
0.194055
0.192472
0.185477
0.183603
0.198319
0.196586
0.20108
0.198143
0.200949
0.202321
-0.289597
-0.214353
-0.434434
-0.475711
0.196471
0.394972
0.126366
0.106627
0.123719
0.0194273
0.0239328
0.0123873
0.00981411
0.0351339
0.0471929
0.0704251
0.0525936
0.0475355
0.0301756
0.0326095
0.0408753
0.0418521
0.190527
0.187912
0.195071
0.201515
0.152084
0.155632
0.126241
0.142787
0.132156
0.0756698
0.108924
0.0884986
0.00748321
0.00789279
0.00549873
0.0190956
0.0230142
0.012165
0.00960675
0.0129635
0.0107456
0.00950619
0.0151654
0.0178844
-0.528629
-0.619071
0.656764
0.572823
-0.285285
0.189865
0.196371
0.19295
0.197769
0.201156
0.201961
0.199636
0.196238
0.183938
0.186278
0.182481
0.181526
-0.43402
-0.577314
-0.397029
-0.455941
-0.192095
0.30871
0.0569231
-0.0099579
-0.010737
0.205091
0.590583
0.377119
0.424446
0.464413
-0.698838
-0.304605
-0.626693
-0.0406776
-0.226092
0.363597
0.417442
0.440502
0.384369
0.332533
-0.57733
0.186052
-0.364449
-0.325512
-0.124579
-0.228447
0.412316
0.347318
0.356428
0.381681
0.405637
0.353584
0.333244
0.333931
0.37354
0.377182
0.16735
-0.0294763
-0.0876861
-0.117089
0.334145
0.211761
0.265515
0.186531
0.188677
0.191803
0.190592
0.173872
0.18113
0.175728
0.182044
0.184606
0.194555
0.194827
0.189492
0.192359
-0.129048
-0.0825206
-0.397825
-0.535621
-0.517548
-0.548375
-0.493244
-0.621588
-0.491994
-0.271863
-0.00293991
-0.70468
-0.546434
-0.589582
-0.543103
-0.501199
-0.426637
0.0584642
0.133671
0.0651861
0.111408
0.138514
0.156305
0.0262773
0.0189572
0.00271537
0.0180084
0.0649247
0.0785155
0.0935864
0.0349489
0.0323446
0.0239495
0.023118
-0.0117888
-0.0119473
-0.00742713
0.00612619
0.0200491
0.0208372
0.0245085
0.0334776
0.0320325
0.0381685
0.18242
0.183825
0.183366
0.198038
0.208481
0.222847
0.191562
0.16963
0.16245
0.162961
0.14118
0.14886
0.146683
0.156828
0.174271
0.182058
0.180052
0.183025
0.169098
0.170228
0.157582
0.161286
0.143473
0.125571
0.114378
0.0163072
0.0102088
0.0124605
0.0135189
0.00968699
0.0110753
0.0351362
0.0285854
0.0326988
0.0264464
0.0283612
0.0165366
0.0160188
-0.46479
-0.392986
-0.525871
-0.552812
-0.630154
0.562528
0.659112
0.470062
0.294251
0.29573
0.515819
0.652243
0.338876
0.364676
0.501928
0.175321
0.448273
0.194579
0.19455
0.192367
0.191632
0.192493
-0.341684
-0.236012
-0.228834
-0.168473
-0.0528721
0.0707017
-0.0729372
-0.152537
-0.0164745
-0.013783
0.302047
0.318982
0.263187
0.290047
0.28857
0.11798
0.193303
0.246987
0.202447
0.242439
0.261663
0.229496
0.254587
0.206493
0.164648
0.166279
0.118092
0.122966
0.103054
0.0909973
0.185171
0.164551
0.173839
0.166123
0.186776
0.215065
0.207159
0.23194
0.245459
0.174714
0.139053
0.144537
0.174144
0.136247
0.148036
0.159992
-0.12769
-0.190694
-0.157451
-0.438455
-0.339549
-0.418118
-0.446164
-0.342922
-0.0409174
-0.791167
-0.841993
-1.40065
0.127147
0.643267
0.370421
0.306511
0.401835
0.372005
0.3696
0.416373
0.421357
0.324845
0.343175
0.345472
0.29838
0.319061
0.351745
0.349983
0.180286
0.0547948
0.0406476
0.0155486
-0.102471
-0.0682647
0.136698
0.0513511
-0.0221267
-0.00606118
0.156527
0.0575243
0.115637
0.142967
0.0654472
0.0383833
0.219938
0.294475
0.283272
0.257345
0.180947
0.191235
0.218973
0.249165
0.27448
0.314585
0.183681
0.186827
0.1888
0.187387
0.182286
0.185892
0.18621
0.188556
0.18919
0.192518
0.190984
0.000548945
-0.0058739
-0.0520039
-0.0196983
-0.253266
-0.292299
-0.406356
-0.342699
-0.0155877
-0.0508409
-0.17033
-0.0834955
-0.046497
-0.0285873
-0.0523523
-0.0644954
-0.229911
-0.289193
-0.271755
-0.0971447
0.0548738
-0.0289477
-0.329292
-0.225196
-0.206586
0.0187559
0.0514053
0.0458884
0.0374594
0.0419917
0.0305907
0.025442
0.0228706
0.0257544
0.0285118
0.0226637
0.0207343
0.0220259
0.0233224
0.0226362
0.0217412
0.171051
0.165072
0.165736
0.161128
0.160718
0.171324
0.175288
0.1769
0.181395
0.183169
0.174913
0.17923
0.181935
0.0241962
0.0195644
0.0215497
0.0216135
0.0208443
0.018537
0.0189697
-0.125811
-0.292737
-0.230547
-0.360375
-0.454437
-0.414433
0.134927
0.0891656
0.146144
0.333926
0.211388
0.113027
0.179089
0.290309
-0.0319815
0.171843
-0.000640398
0.523892
0.401643
0.545184
0.223016
-0.111467
0.043184
0.096453
-0.111583
-0.0237009
-0.0147015
-0.113692
-0.0834302
-0.0635667
0.0342941
-0.0732032
-0.102189
-0.364398
-0.190378
-0.0241393
-0.0399029
0.0872923
0.148429
-0.118126
-0.174295
-0.19963
0.289749
0.312351
0.3318
0.298784
0.32276
0.24969
0.240991
0.259109
0.269616
0.263564
-1.13107
-0.848042
-1.76312
-1.06579
-0.628344
0.157644
0.122138
0.389483
0.293022
0.368043
0.352496
0.328466
0.293092
0.296685
0.332323
0.0524945
0.154554
0.13402
0.134568
0.0344264
-0.0164629
0.261313
0.25114
0.295034
0.316017
0.283463
0.31907
0.178335
0.1783
0.180932
0.177474
0.176271
0.177864
-0.0487772
-0.0234501
-0.17043
-0.218899
-0.223889
-0.15735
0.0333921
0.0276374
0.0230641
0.024106
0.0299418
0.031863
-0.171498
-0.211594
-0.321975
-0.232439
-0.34014
-0.404229
-0.424253
-0.349912
-0.253618
-0.246852
0.0908927
0.341235
0.195107
0.319867
0.186341
0.193117
0.154625
0.150823
0.181392
0.0520431
0.119544
-0.0904029
-0.612754
-0.500254
0.360859
0.435519
0.220719
0.081011
-0.209782
-0.0727002
0.212272
0.146724
0.189845
0.257487
0.252979
-0.344032
-0.302793
-0.00292171
0.198966
-0.096384
-0.161977
-0.153747
0.0130026
-0.0273486
)
;

boundaryField
{
    wall-4
    {
        type            zeroGradient;
    }
    velocity-inlet-5
    {
        type            zeroGradient;
    }
    velocity-inlet-6
    {
        type            zeroGradient;
    }
    pressure-outlet-7
    {
        type            fixedValue;
        value           uniform 0;
    }
    wall-8
    {
        type            zeroGradient;
    }
    frontAndBackPlanes
    {
        type            empty;
    }
}


// ************************************************************************* //
