/*--------------------------------*- C++ -*----------------------------------*\
| =========                 |                                                 |
| \\      /  F ield         | OpenFOAM: The Open Source CFD Toolbox           |
|  \\    /   O peration     | Version:  4.0                                   |
|   \\  /    A nd           | Web:      www.OpenFOAM.org                      |
|    \\/     M anipulation  |                                                 |
\*---------------------------------------------------------------------------*/
FoamFile
{
    version     2.0;
    format      ascii;
    class       surfaceScalarField;
    location    "16";
    object      phi;
}
// * * * * * * * * * * * * * * * * * * * * * * * * * * * * * * * * * * * * * //

dimensions      [0 3 -1 0 0 0 0];

internalField   nonuniform List<scalar> 
1300
(
3.75095
5.62643
-6.13725
3.75095
-5.95759
5.62643
-4.58276
4.58276
-1.39028
1.39028
1.87671
1.87424
-3.3853
3.3853
-4.58317
4.58317
-2.75477
2.75477
-5.24638
5.24638
-5.06719
5.06719
4.67584
-4.67584
-4.85935
4.85935
-1.82971
1.82971
-3.75477
3.75477
3.17001
-3.17001
-4.88472
4.88472
-0.491933
0.491933
-0.55286
4.30381
3.19809
3.19809
-2.4761
2.4761
-4.85108
4.85108
6.21775
-6.21775
9.31344
-9.31344
-3.1762
-3.40678
1.32368
-8.15011
-4.6339
-4.6339
-8.44023
8.44023
-2.8138
2.81263
2.91242
-2.91242
-1.81872
1.81872
-4.52938
-0.0533709
-4.52938
4.53861
0.0441472
4.53861
-1.49427
0.103993
-1.49427
4.11226
-4.11226
1.22229
0.167982
1.22229
3.06544
-3.06544
-1.87719
3.7539
1.87376
-1.87168
6.17549
-1.87927
3.75352
-5.08933
5.08933
-3.18014
-0.205156
-3.18014
3.73355
-0.348254
3.73355
-5.28491
5.28491
-4.49202
-0.0911499
-4.49202
4.6464
-0.0632261
4.6464
2.97636
-2.97636
-2.78649
0.0317228
-2.78649
2.70141
0.0533607
2.70141
0.353706
5.27272
-5.98014
8.79276
-5.27272
0.026348
5.20832
0.0380525
5.20832
-5.10569
0.0385008
-5.10569
5.01102
0.0561628
5.01102
4.75343
-0.0775898
4.75343
-4.7983
0.122466
-4.7983
-3.32417
-3.4177
-4.95998
0.100634
-4.95998
-1.8684
0.0386964
-1.8684
1.77021
0.0594945
1.77021
-3.45631
3.45631
-4.18851
0.433744
-4.18851
3.12409
0.0459252
3.12409
1.86917
1.88178
5.62013
-5.62013
2.45011
-4.81693
-0.0677886
-4.81693
-4.96818
-4.34527
4.96818
-0.0834549
-0.807052
0.315119
-0.807052
3.16051
0.0375842
3.16051
2.62829
0.0731234
-2.62829
0.15219
3.39329
-3.39329
1.83305
0.643045
1.83305
-5.57335
5.57335
4.94815
0.0628748
-4.94815
0.0970695
6.15668
0.0610752
6.15668
-6.19987
-0.017884
-6.19987
3.36308
-6.76985
-3.41537
4.74981
0.109537
-4.74981
0.115909
2.88581
0.0266079
2.88581
-2.8886
2.8886
-2.97123
0.0588083
-2.97123
-2.2238
0.405077
-2.2238
1.50308
0.31564
1.50308
-4.39667
-0.132712
-4.39667
-4.45713
0.26862
4.45713
0.0814787
0.921273
-0.921273
-1.60873
0.114459
-1.60873
-4.25354
-0.143138
4.25354
-0.141278
-3.96056
-0.151693
-3.96056
-3.0244
0.0531721
3.0244
0.0410419
3.11298
0.0475257
-3.11298
0.0475403
-1.87101
3.75279
-1.87994
3.75371
-4.91827
-0.17106
-4.91827
5.12561
-0.0362841
5.12561
3.37108
0.383687
-3.37108
0.19094
4.11555
-0.382006
4.11555
-5.3256
0.0406917
-5.3256
5.21131
0.0735951
5.21131
4.35135
-0.235798
-4.35135
-0.14067
4.69438
-0.0479777
4.69438
3.02439
-0.0480354
3.02439
-2.93403
-0.0423252
-2.93403
2.80075
-2.80075
2.79836
0.00239112
-2.79836
0.0118646
-11.1324
11.1145
-0.0348412
-11.0975
5.17348
5.17348
4.15892
0.594502
4.15892
-5.0107
0.212397
-5.0107
3.31949
-6.73487
3.40936
-6.73352
3.41125
-11.5614
3.3487
-6.7664
5.0941
-5.0941
5.04028
0.0538135
-5.04028
0.0802985
-1.86175
-0.00665649
-1.86175
-2.86976
-0.58655
-2.86976
3.99699
-0.540674
3.99699
-3.02678
3.02678
-3.0783
0.0515239
3.0783
0.0457835
4.74961
-0.0552378
-4.74961
-0.0673198
1.03387
0.188427
-1.03387
0.226815
3.57451
-0.181215
3.57451
-3.21162
-0.181675
-3.21162
-1.84375
-0.0179947
1.84375
-0.0107012
-5.81911
0.24576
-5.81911
-11.1909
0.09342
-11.1529
-6.10645
-6.10645
2.33378
11.1265
-2.89684
-0.0371863
2.89684
-0.0110316
2.96045
0.0663258
-2.96045
0.0718525
-2.83131
0.0305615
2.83131
0.0572909
-2.62145
0.397651
-2.62145
-1.06874
1.06874
-1.26308
0.194338
1.26308
0.240001
1.15634
-0.235063
1.15634
1.70342
0.0667934
-1.70342
0.0946918
-3.84274
-0.117827
-3.84274
5.24046
-0.114842
5.24046
-3.09675
-0.114868
3.09675
-0.0723586
-0.0333866
11.1479
-5.1401
0.034408
5.1401
-11.2089
11.2434
-3.257
0.635554
3.257
0.901922
5.2976
0.275746
-5.2976
0.2869
5.145
0.0663085
-5.145
0.0509075
-2.35865
-0.511107
-2.35865
-4.57377
-0.344501
4.57377
-0.576782
-11.4736
-0.201962
11.6756
-11.4175
6.02107
0.135611
-6.02107
11.379
-0.909183
-0.01209
0.909183
0.159559
1.44811
-0.291774
1.44811
3.73815
-0.163645
-3.73815
-0.104583
-5.32148
-0.0041187
5.32148
-0.081024
-1.85352
-0.50513
1.85352
-0.405415
-4.26674
4.30432
1.90875
-3.33024
-3.43961
-7.67551
1.8511
1.90169
4.30121
-7.14404
-4.41732
-7.02813
7.27391
-6.98701
-9.31079
9.2332
7.41159
-7.56328
-5.784
5.82978
6.48328
-6.44224
1.87839
1.87551
6.64146
-6.84661
-15.0493
14.8783
9.72126
-9.81241
11.5784
-11.5377
-12.8279
12.8942
-5.75018
5.7819
-6.62675
6.58442
-6.79261
6.72025
-3.28076
-3.45276
9.23271
-9.13207
11.7082
-11.776
-7.60092
8.03466
3.38168
0.922641
3.42921
-1.88169
3.76008
-1.87182
3.78058
3.41852
-6.69928
3.31635
-6.75596
6.08226
5.62595
-5.9988
-1.67671
-5.85518
5.88179
-5.83479
5.89208
8.97982
-9.03319
-1.88554
3.76105
-1.86816
3.76986
-3.42563
-2.35837
3.3797
0.92151
5.65012
3.58258
-5.75966
-1.26847
-7.67705
7.5134
-7.96624
7.78456
-0.454604
5.82463
-5.37003
4.39648
-1.54543
7.37006
5.72849
5.94088
5.86841
-5.59267
1.1186
-6.48863
-6.39156
-2.65437
2.76883
2.66268
-2.4947
5.85645
1.55514
5.71517
-5.47388
-2.0894
-5.59171
3.82143
2.00836
3.87295
4.05919
2.4241
4.11236
3.02968
-3.03623
0.00654914
-3.05782
6.0875
0.724824
-5.41619
-4.49468
4.96131
1.68015
4.61305
-4.41797
-2.42864
-4.22703
-9.63861
-5.41071
-9.98311
8.86463
6.01363
8.82834
-9.25447
9.17344
6.59615
3.12511
6.53292
-6.14463
-3.66779
-6.2853
10.6157
-2.13141
-8.48434
-7.37906
-5.44883
7.30547
4.2729
7.74226
5.15194
7.79317
3.42163
7.19412
-7.69453
2.2457
-3.84771
-1.90247
-3.83585
3.74385
2.03805
3.79721
-4.12611
-2.50064
-4.1633
-4.19226
-2.60036
4.24029
2.34413
-4.29879
-3.66745
4.41366
2.3066
3.12193
-7.53925
3.64447
-7.09723
-6.44379
-2.68829
-6.36349
4.18687
2.6052
-6.79207
-2.51241
10.9451
-5.31913
9.26837
-7.2358
-4.5402
-7.30312
-6.59862
-1.00229
-6.33
-8.78328
8.27217
-9.24581
8.70514
13.5565
-6.79447
-6.76204
-3.9699
-2.47234
3.92236
-0.493155
-3.71046
3.71701
0.0496256
3.8302
4.75284
4.25969
-3.90004
-1.93475
-3.82819
3.85057
2.04151
3.88113
6.71274
2.26708
6.75689
-6.43211
-2.60108
-6.56482
9.04837
-8.6433
2.9402
-2.95819
5.21143
2.57314
-5.03021
-2.64684
5.99249
-3.02639
-2.9661
-12.2306
10.6186
1.61208
-4.86059
-0.464116
0.0278173
-5.51401
-3.79678
5.39154
0.54934
11.1679
7.37113
-5.51458
5.76034
6.16101
6.22389
-0.16767
5.77922
-5.14367
5.17602
-2.18443
-2.99159
5.27581
-5.41895
-1.28901
-5.19593
3.90692
0.29622
1.87636
-1.56124
-2.08363
-0.570736
-1.98894
1.61281
1.04987
1.80124
0.953459
1.81537
-2.99634
0.575336
2.42101
-2.04288
-1.91936
-3.56734
-0.921339
4.48868
5.51303
2.00037
-5.40845
-0.183264
2.73076
-2.67127
-0.799972
-2.76737
2.02222
-2.8222
-3.52445
-1.7666
5.29105
-3.38125
-0.446942
3.31492
0.558029
-3.80035
-2.05484
3.74154
0.370819
-3.14388
6.2546
-3.11072
-5.07863
2.5321
3.5554
4.54046
-4.78901
2.4379
2.35111
-1.23361
4.80371
-0.190653
4.4217
-5.63322
3.20459
4.72145
3.31321
-5.10514
0.878104
-4.75512
10.5893
-8.18789
-2.40138
6.9166
3.67267
7.83309
5.72342
-5.82758
13.6607
-1.23902
-6.94887
5.99414
-2.68094
5.95677
-8.6377
-11.6802
4.73132
-9.68693
9.66975
0.0171853
-2.40406
-6.85041
12.091
-1.86309
-10.2279
6.96525
-5.85805
-4.87184
10.7299
-7.98946
8.53962
-3.32759
-5.21204
-7.488
-4.04968
7.49212
1.68132
-9.85423
12.0999
-2.66011
5.79979
0.733137
5.75181
4.78418
-5.96712
1.18294
3.20528
-6.53286
4.39913
-10.3662
-4.99063
9.71716
-4.72654
-7.67891
-6.90048
-0.778434
1.96924
10.1307
-7.12117
5.41699
1.70419
3.34699
0.534142
-3.34938
-0.486465
0.350236
4.45508
-4.80531
4.14745
4.22057
3.38681
1.06827
3.80298
2.07881
-3.79195
-0.371348
-4.06243
1.46208
-1.7183
-3.57223
5.0343
-4.0018
0.429576
-2.67158
-3.51849
6.19007
-4.57405
3.09072
3.16388
5.13223
-4.89368
1.37519
-2.41871
-2.47497
2.62661
-4.34491
1.93078
3.10352
4.23738
0.569928
4.96014
4.75702
-7.56535
0.468118
8.3396
-7.07113
1.75826
6.03491
-7.17524
0.274765
-6.08873
1.07808
-6.39721
-5.71399
5.63303
-6.63532
-3.00467
6.04734
0.70955
-6.12882
-0.201187
-5.84635
-2.93694
-6.35148
-3.17141
-6.0744
-8.999
-1.61123
-7.38777
6.66095
-6.77059
-3.21252
7.34737
1.35777
-7.27146
7.25937
-7.28961
6.99783
0.0944954
3.62251
4.35418
1.88185
-2.38891
4.27075
-4.92135
7.18843
-8.38013
3.45878
3.96251
-6.56359
-4.41762
5.00003
4.04835
5.31567
8.94093
-10.6642
1.72331
-10.989
12.1017
-1.11274
-16.7084
5.71943
-7.76747
2.69566
0.244539
2.689
0.663792
2.40733
-3.07113
-2.2944
-2.3051
-2.24763
-3.28033
5.52796
1.09089
-3.33003
2.23914
-3.40945
4.50034
-0.103458
-3.22657
5.1996
-2.79226
5.44414
-3.51291
1.93123
3.20023
5.4742
-2.27397
4.19403
-1.6209
1.73313
-4.0071
-1.5472
-2.99096
5.02901
-3.19911
3.62869
-0.223696
3.85238
-4.00074
0.974354
-0.613933
3.60664
3.75883
4.10235
-3.03408
2.87085
-4.49175
-1.13625
-3.92182
-0.8183
-0.227986
-3.7303
3.95828
6.14992
-6.37791
-5.26669
9.59535
-4.32865
7.73311
-5.41291
-2.3202
-4.2476
-4.3957
3.84995
1.92928
9.66239
0.22097
-5.63388
-4.9227
-4.02078
3.19449
1.98153
-2.08626
3.69833
2.05844
-0.18208
0.627126
1.17411
1.92481
-1.29769
0.160312
1.7645
-1.40093
2.01759
0.713174
-2.08438
0.0954397
-1.38033
3.40255
1.04068
-2.09055
0.792859
1.14452
-3.32895
4.68109
-2.32233
-2.35876
5.82562
1.17322
-3.49555
4.02271
-3.72649
2.27186
-3.1932
-1.22369
-4.95018
-3.39504
-2.43491
4.67405
-3.09305
5.09342
1.1496
-4.91016
6.05976
-3.46585
1.69924
-3.02215
3.73533
-1.03449
-1.98766
2.69098
2.60008
-2.78517
0.0178056
-0.0941937
2.29246
-2.38666
-0.529732
-2.57261
-4.55017
4.92099
-2.14468
4.58258
2.12608
-1.92402
6.50659
1.8093
-3.73332
-3.26933
-3.71627
-1.38221
3.15824
-1.38972
-4.89558
-6.60175
5.13138
-0.70968
-6.93523
9.63582
-2.7006
-5.25508
2.05049
4.86611
-8.19044
1.65757
-3.79131
5.84451
5.65386
4.94418
-11.7363
1.50844
-5.72271
3.00244
-8.72515
6.67511
-3.82357
8.55489
-11.1949
7.98235
-9.83711
6.15351
-2.57164
5.63016
-4.44722
2.85417
-6.90385
-5.22253
6.92579
-3.80067
7.65892
-4.26911
11.928
-6.92922
7.01357
4.91446
-1.46295
-5.84017
-6.86998
5.40703
0.143595
5.8954
4.95995
-2.88114
4.5886
2.25695
-4.67566
-2.08796
-6.54477
1.86911
-3.38089
-1.90508
3.77418
3.22716
3.7613
1.29922
-3.27484
6.83977
-7.61821
-2.11324
-3.60075
6.80172
-1.39469
4.13569
-7.73643
-2.26152
4.88051
-0.710047
-4.17046
1.91396
-4.91863
1.38521
-6.30384
5.25011
-5.4513
2.13169
-9.89917
-5.13976
-4.98021
-2.19838
-5.09123
-7.65252
5.45413
-1.93308
5.32629
-8.69651
7.98646
-3.40521
8.85934
-5.27595
-1.07553
5.68136
1.31647
10.1758
0.175977
-4.59359
-1.76984
3.89914
-2.12931
1.42465
-3.55432
0.344825
2.50681
3.31881
-6.41373
-0.149862
-4.74345
-3.90961
7.95796
5.68573
11.8357
1.17141
9.18317
-1.22521
10.3546
4.09046
4.33046
-2.95896
4.68227
0.999325
4.4581
-0.837645
2.76888
1.85136
1.89005
0.781214
2.29279
1.46603
3.26715
0.196022
-2.10908
4.65719
-8.67797
-0.976696
-8.08346
1.14974
5.85095
-4.70122
3.10597
-1.12443
0.976662
0.260913
-1.84812
1.58721
-2.73068
-2.0302
-0.265698
-1.5296
2.32246
1.87295
-2.05677
-0.673914
0.276306
-3.67135
2.91689
-2.89909
-0.299012
5.76074
-2.72986
0.343205
-1.03062
-2.22941
-2.80015
2.70471
6.24511
0.261486
3.13439
5.18248
3.12764
0.246502
7.0257
-7.00852
-3.34055
-5.50008
1.17503
6.04114
2.18992
7.94076
7.10438
5.70969
-2.02674
-9.64495
6.53474
-1.85247
5.42199
-1.25153
-5.05231
4.85791
2.33051
-5.56746
0.116165
-4.93615
-6.78862
-0.479391
8.46585
-9.69642
8.62089
5.68396
1.70382
-4.32878
-0.651427
4.13444
0.196017
10.5506
-1.19956
-6.83102
8.03057
-4.6514
3.6747
0.89478
2.80355
2.48199
1.35755
-5.47347
-10.1747
-1.75479
-1.57416
-4.11355
0.375126
-2.24807
6.28825
-2.61355
3.96805
5.41702
6.39368
-2.15497
-4.22294
6.48362
-2.51557
3.87811
)
;

boundaryField
{
    wall-4
    {
        type            calculated;
        value           uniform 0;
    }
    velocity-inlet-5
    {
        type            calculated;
        value           uniform -3.75095;
    }
    velocity-inlet-6
    {
        type            calculated;
        value           uniform -5.62643;
    }
    pressure-outlet-7
    {
        type            calculated;
        value           nonuniform List<scalar> 8(6.13725 5.95759 6.58297 6.82642 6.74187 6.77845 6.72885 6.75995);
    }
    wall-8
    {
        type            calculated;
        value           uniform 0;
    }
    frontAndBackPlanes
    {
        type            empty;
        value           nonuniform 0();
    }
}


// ************************************************************************* //
