/*--------------------------------*- C++ -*----------------------------------*\
| =========                 |                                                 |
| \\      /  F ield         | OpenFOAM: The Open Source CFD Toolbox           |
|  \\    /   O peration     | Version:  4.0                                   |
|   \\  /    A nd           | Web:      www.OpenFOAM.org                      |
|    \\/     M anipulation  |                                                 |
\*---------------------------------------------------------------------------*/
FoamFile
{
    version     2.0;
    format      ascii;
    class       volVectorField;
    location    "16";
    object      U;
}
// * * * * * * * * * * * * * * * * * * * * * * * * * * * * * * * * * * * * * //

dimensions      [0 1 -1 0 0 0 0];

internalField   nonuniform List<vector> 
918
(
(0.985102 -0.00069241 0)
(0.00476851 2.96626 0)
(-0.00538851 1.6272 0)
(0.97983 0.00239096 0)
(-0.0025114 1.58623 1.91177e-21)
(-0.00704455 2.9489 -8.00238e-19)
(0.846897 1.22046 3.05697e-19)
(0.473033 0.22821 -3.57659e-21)
(0.999917 -0.000315151 0)
(-0.0208254 1.00246 0)
(-0.00216699 1.32731 0)
(0.806217 -0.00734175 0)
(0.0115246 2.93011 0)
(0.00208366 2.79461 0)
(-0.0191116 3.16418 4.82906e-19)
(-0.00616763 1.50043 -4.95681e-21)
(0.576665 0.10721 2.23203e-19)
(0.165586 1.17128 2.66598e-19)
(0.962456 0.00382326 0)
(-0.00233627 1.43135 0)
(0.161135 0.263215 -1.91888e-19)
(1.00175 -0.00543597 0)
(1.00087 -0.00993233 0)
(0.976116 -0.00634748 0)
(0.720423 -0.0248489 0)
(0.0197954 2.62745 0)
(-0.0150369 2.91027 2.62184e-19)
(-0.0153439 1.65141 0)
(-0.0152486 1.75871 0)
(-0.0143493 1.64795 0)
(-0.00240956 1.8191 0)
(-0.00169398 1.60922 -1.48308e-21)
(-0.00539834 1.50816 0)
(-0.0204497 2.9875 -2.79373e-23)
(-0.0169894 3.0054 6.35688e-19)
(0.00201682 3.00016 0)
(0.860464 -0.00919425 0)
(0.416883 0.957409 -8.6115e-21)
(0.835118 1.23085 -4.22408e-19)
(0.984601 1.0763 3.98265e-19)
(0.701461 1.32346 -7.15531e-20)
(0.697792 1.30004 4.05524e-19)
(0.498709 0.295665 3.48753e-21)
(0.489598 0.203436 0)
(1.1854 0.597607 0)
(0.468838 0.315792 1.64228e-20)
(0.427041 0.219051 -1.70524e-20)
(0.919536 -0.00708914 0)
(1.00041 7.82071e-05 0)
(0.999932 0.000325612 0)
(1.00335 -0.0077386 0)
(1.00094 -0.00104011 0)
(1.0002 2.60896e-05 0)
(0.0500732 1.56226 -1.47812e-19)
(-0.0190575 1.04634 0)
(0.0104009 0.916063 0)
(-0.0491976 1.13945 0)
(-0.0400539 1.09544 0)
(-0.00581361 1.57725 0)
(-0.00813074 1.47458 0)
(-0.0103287 1.30912 0)
(-0.00679397 1.51011 0)
(-0.00343345 1.34011 0)
(0.883543 0.000174636 0)
(0.889835 0.00890566 0)
(0.818576 -0.000847869 0)
(0.8833 0.0133216 0)
(0.790658 -0.0074078 0)
(0.0153468 3.00065 2.86724e-19)
(0.0117018 3.00833 0)
(0.00649496 3.0026 0)
(0.0141686 2.9972 3.15927e-24)
(0.00837868 2.9585 -4.33271e-19)
(0.0152159 2.98188 0)
(0.0112041 2.90369 0)
(0.0261164 2.92968 5.49274e-25)
(0.00444882 2.82507 0)
(0.0328581 2.91489 0)
(-0.00704113 2.74483 0)
(0.305216 3.55861 0)
(-0.146082 3.63596 0)
(0.136653 3.25605 -4.45751e-19)
(-0.00957984 2.99315 0)
(-0.01273 1.79735 0)
(-0.00444415 1.63802 4.88834e-21)
(-0.00596554 1.51579 -8.26e-21)
(0.639463 0.16814 -7.70296e-20)
(0.594798 0.0720293 -7.50465e-20)
(0.607037 0.198423 -2.30133e-19)
(0.554905 0.13239 -1.53836e-19)
(0.217922 0.934789 0)
(0.25653 1.3048 -2.64507e-19)
(0.32497 1.28925 4.35709e-19)
(0.98753 0.00823565 0)
(0.942117 0.00560492 0)
(1.00032 0.00040524 0)
(1.00326 0.00948603 0)
(1.00279 0.00781412 -4.26044e-19)
(0.991858 0.00996671 3.25166e-19)
(-0.0146926 1.55763 0)
(-0.00619885 1.41615 0)
(-0.0240666 1.65938 0)
(-0.0191737 1.59358 0)
(-0.00135995 1.46155 0)
(0.238666 0.282032 5.91379e-20)
(0.283031 0.264749 0)
(0.993432 -0.00819073 0)
(0.954698 -0.0062289 0)
(0.856233 0.0185979 0)
(0.825664 0.031418 0)
(0.77038 -0.0181992 0)
(1.01346 -0.00339558 0)
(0.770078 0.0493824 0)
(0.63695 -0.0089764 2.98015e-19)
(-0.0344661 2.86797 1.26389e-19)
(0.0445058 2.90756 0)
(0.058367 2.88194 0)
(-0.00555582 2.69498 0)
(-0.0136408 2.98506 2.39524e-19)
(-0.01851 2.89539 0)
(-0.0159371 2.98806 -7.62175e-19)
(-0.0132753 2.92536 2.64551e-19)
(-0.0127885 1.81231 0)
(-0.0100145 1.8074 0)
(-0.00141266 1.63714 -9.3928e-23)
(-0.00232003 1.60804 0)
(-0.0060483 1.50092 0)
(0.927121 -0.00494269 0)
(0.849726 -0.00532618 0)
(0.850927 0.00976319 0)
(0.941848 -0.00753084 0)
(0.88078 -0.00799848 0)
(0.527741 1.15396 6.50441e-21)
(0.582001 1.19818 0)
(0.376239 0.898357 2.44696e-21)
(0.31714 0.75776 0)
(0.948093 1.105 -1.13822e-19)
(1.05992 0.909589 2.34975e-19)
(0.417059 1.38083 0)
(0.545745 1.38215 0)
(0.534066 1.32848 0)
(0.100125 0.141922 -4.90247e-20)
(0.5316 0.27472 0)
(0.516405 0.178061 4.41507e-20)
(1.03768 0.959346 0)
(1.11201 0.810418 0)
(1.13532 0.755402 -2.06532e-19)
(1.16173 0.649267 0)
(1.20859 0.428557 2.59166e-20)
(0.955447 -0.00842318 0)
(0.96243 -0.0101658 0)
(0.902583 -0.00852362 0)
(0.984379 -0.00911304 0)
(0.974994 -0.0094685 0)
(0.937333 -0.00617849 0)
(1.00012 0.00205776 0)
(1.00088 0.00149284 0)
(0.999846 0.000873553 0)
(0.0699952 1.79011 8.79223e-20)
(0.0505248 1.5316 0)
(0.0323512 1.77963 1.07162e-19)
(0.025423 1.56211 -8.95639e-20)
(0.0978911 1.16116 -2.20978e-19)
(0.0264259 1.04064 0)
(0.104715 1.00021 0)
(-0.0489393 1.26695 0)
(-0.0289633 1.20648 0)
(-0.00367988 1.7187 -3.688e-22)
(0.0015858 1.60291 0)
(-0.00754358 1.70163 -1.71505e-20)
(-0.00946378 1.56045 3.32343e-20)
(-0.0329753 1.37254 0)
(-0.0189186 1.43876 0)
(-0.0177546 1.26912 0)
(-0.00918149 1.52939 0)
(-0.00532332 1.35529 0)
(0.958554 0.0133857 0)
(0.90073 0.00163896 0)
(0.939716 0.00916317 0)
(0.870518 0.00111591 0)
(0.816236 -0.0025739 0)
(0.906878 0.00210347 0)
(0.901952 0.00424949 0)
(0.816994 -0.00465728 0)
(0.00431065 3.06442 -2.36756e-21)
(0.016482 3.05774 0)
(0.0153087 2.96906 0)
(0.00884127 2.8764 0)
(0.9621 3.99542 0)
(1.30665 3.25406 4.90259e-19)
(0.0702464 3.08456 0)
(-0.0245651 2.91307 0)
(-0.0139047 1.79434 0)
(-0.0141471 1.79433 0)
(-0.0131066 1.79402 0)
(-0.00763323 1.80726 1.7556e-21)
(-0.011756 1.80388 0)
(-0.0093665 1.80223 0)
(0.000827299 1.52332 2.7903e-22)
(1.31523e-05 1.66305 9.28979e-21)
(-0.00338475 1.65312 8.43635e-21)
(-0.0022876 1.51743 0)
(0.667142 0.122637 1.12946e-19)
(0.60776 0.0359306 -1.09757e-19)
(0.189478 1.45921 0)
(0.253567 0.698239 -9.02916e-20)
(0.107081 1.57537 -3.10396e-19)
(0.152035 1.16055 3.09236e-19)
(0.900575 0.00866412 0)
(0.968118 0.0116339 0)
(0.974762 0.010781 0)
(0.923798 0.0066633 0)
(-0.0124944 1.53998 0)
(-0.0146115 1.54751 0)
(-0.00654001 1.38088 0)
(0.427034 0.330079 1.50257e-19)
(0.360038 0.310884 -1.83207e-19)
(0.367121 0.242816 0)
(1.13228 0.0817762 -1.58938e-21)
(1.11291 0.0357136 0)
(1.04712 0.0345138 0)
(0.958489 0.00471413 0)
(0.68136 0.0899118 0)
(0.711536 0.065702 -4.79876e-19)
(0.618144 0.0200759 1.83318e-19)
(0.00990633 2.98284 1.63994e-19)
(-0.0320471 2.86883 1.95308e-20)
(0.00209018 3.04967 -5.1278e-21)
(0.0206385 3.04326 1.91172e-19)
(-0.015334 2.99629 8.80849e-21)
(-0.0128149 2.94942 -3.57484e-23)
(-0.0175863 3.01152 -1.66388e-19)
(0.0142166 3.02306 1.19758e-19)
(0.00669428 3.03677 -1.90993e-19)
(0.933767 0.00915556 0)
(0.929439 0.00410531 0)
(0.853418 -2.79431e-05 0)
(0.955954 0.0131125 0)
(0.938859 0.0139461 0)
(0.874881 0.00856981 0)
(0.912009 0.00622158 0)
(0.918508 0.0121939 0)
(0.827712 0.0036437 0)
(0.751309 1.42776 1.48183e-19)
(0.796681 1.52177 0)
(0.243971 0.408681 1.09625e-20)
(0.189494 0.591251 8.68103e-20)
(0.283088 0.714785 -5.19851e-20)
(0.242267 0.59783 9.46519e-20)
(0.27144 0.673576 2.79708e-19)
(0.110668 0.174303 7.95394e-20)
(0.583732 0.226653 1.65659e-19)
(0.555448 0.249647 4.06596e-20)
(0.535252 0.162106 8.3504e-20)
(1.19797 0.482626 1.20253e-19)
(1.20961 0.276045 1.26986e-19)
(0.0416668 1.75573 4.44978e-20)
(0.0284244 1.5859 0)
(1.00005 0.0256491 0)
(0.969715 0.0155793 0)
(0.924344 -0.00146654 0)
(0.0110734 3.07467 0)
(0.0209563 2.94399 3.23498e-19)
(0.0172534 2.95642 0)
(0.00636706 2.85069 -3.22429e-19)
(0.00552088 3.09179 7.44718e-20)
(0.00589173 3.08175 0)
(0.883673 1.82783 -1.03621e-19)
(1.27021 2.38313 2.31729e-19)
(0.864555 1.93318 -5.88545e-19)
(0.0211545 2.98607 -1.17618e-19)
(0.0371747 3.00918 0)
(-0.0313835 2.88404 0)
(-0.00486682 1.6656 -2.36352e-21)
(-0.000410181 1.66542 -2.05384e-20)
(-0.000896878 1.53525 -2.89825e-21)
(0.256014 1.32421 2.74128e-19)
(0.217476 0.455179 -1.87853e-19)
(0.0647652 1.76505 1.97402e-19)
(0.0986378 1.68086 -2.48477e-19)
(0.0756448 1.40162 3.62481e-20)
(0.00439363 3.11855 -4.21697e-19)
(0.010924 3.11894 4.78423e-19)
(-0.00922913 2.98083 2.05942e-19)
(-0.00415488 2.9783 -1.79895e-19)
(-0.0216911 2.88229 -2.0986e-19)
(0.00765424 3.09928 -5.45684e-19)
(0.0010802 3.10456 5.52682e-19)
(0.215722 0.589169 0)
(0.143086 0.5733 -1.62374e-19)
(0.163544 0.231243 7.16295e-20)
(0.314451 0.800244 2.45311e-19)
(0.153132 0.214723 -3.75536e-19)
(1.2086 0.17602 -2.22136e-20)
(1.20907 0.322931 0)
(1.19368 0.127595 5.01629e-20)
(0.00694084 1.74798 -4.62012e-22)
(0.027104 1.76373 0)
(0.011743 1.59797 0)
(0.321846 1.18605 -9.80078e-20)
(0.34766 0.993831 -2.07522e-19)
(0.160724 0.300568 3.52078e-19)
(1.00544 -0.0111895 0)
(1.00757 -0.00768184 7.80849e-20)
(-0.0132653 1.80087 0)
(-0.0231876 1.80937 0)
(1.00203 0.00342327 7.77036e-22)
(1.00374 0.010029 1.59563e-19)
(-0.00680206 1.81075 -2.34728e-21)
(-0.00478117 1.80967 0)
(0.038947 3.18494 4.01168e-20)
(0.390357 3.49598 0)
(1.1126 0.636624 2.57569e-20)
(1.01229 0.0133348 -8.85237e-22)
(1.0211 -0.0108175 0)
(1.00165 0.000145716 1.06688e-24)
(-0.124322 1.18224 0)
(-0.11808 2.45245 0)
(-0.055873 1.71566 0)
(-0.0498073 1.9229 2.50548e-20)
(-0.0393348 1.85981 1.49224e-20)
(1.00306 0.00887428 9.60254e-22)
(1.04317 0.0160177 0)
(1.06912 0.0283564 0)
(-0.0153485 1.79571 0)
(-0.00996558 1.8232 0)
(-0.0259644 1.7912 0)
(0.323141 1.29914 -1.9297e-19)
(1.01131 -0.0100792 0)
(1.00921 -0.0158255 0)
(1.00217 0.000453566 9.85063e-20)
(1.00553 -0.00462326 -1.17817e-19)
(1.00114 -0.000966901 0)
(-0.017258 1.79404 0)
(-0.0154635 1.79492 0)
(-0.0146825 1.79564 0)
(-0.0248846 1.79365 0)
(-0.0209669 1.79182 0)
(-0.0245605 1.79459 0)
(1.02718 -0.00990988 0)
(1.02308 0.0190625 -3.0695e-22)
(0.806757 1.25418 2.10716e-19)
(1.00298 0.000171009 -9.90456e-20)
(1.0034 0.00571951 1.19275e-19)
(1.00115 0.00200587 0)
(1.01323 0.0109353 9.58892e-20)
(1.00868 0.00865184 -1.19332e-19)
(1.00885 0.0155404 0)
(-0.00978555 1.82299 0)
(-0.00749887 1.81791 4.40365e-21)
(-0.00830951 1.81682 -2.99722e-21)
(1.1862 0.243208 -2.77917e-20)
(1.12231 0.0833651 0)
(0.0583338 3.07767 -2.10295e-19)
(0.0693047 2.84867 -1.69533e-20)
(0.150481 3.2002 3.28681e-19)
(0.144793 3.22912 4.58955e-21)
(0.137191 3.24549 0)
(0.0212363 3.13869 4.55041e-20)
(0.0816019 3.16348 2.02574e-19)
(0.0736346 3.19036 -8.93215e-20)
(0.0271948 3.12787 0)
(0.698332 0.321453 0)
(0.620895 0.38818 0)
(1.0778 0.66156 -9.9988e-20)
(1.10159 0.790736 1.55748e-19)
(1.13895 0.547825 0)
(1.18349 0.498347 0)
(1.01657 0.0131094 -1.79552e-19)
(1.01445 0.0151393 2.23726e-19)
(1.02472 -0.0119437 0)
(1.01885 -0.0203572 0)
(1.00656 0.00289352 0)
(1.01033 0.00419517 0)
(1.00446 0.00211381 0)
(1.00979 0.00564798 0)
(1.0076 0.00586074 0)
(1.00536 0.00459916 0)
(-0.149127 1.22048 0)
(-0.149809 1.2387 0)
(-0.0540623 1.15048 0)
(0.0728366 1.16983 0)
(-0.0989348 2.56867 0)
(0.0429992 2.58726 -1.16263e-19)
(-0.133392 2.46595 0)
(-0.0908092 2.34727 3.60918e-20)
(-0.0359994 2.06322 -5.09724e-20)
(-0.0467829 1.72215 0)
(-0.030228 1.73542 0)
(-0.0736801 1.68645 0)
(-0.0586222 1.63373 0)
(-0.112406 1.8592 -1.13628e-20)
(-0.0483129 1.87629 1.76112e-20)
(-0.04757 1.91677 2.38712e-20)
(-0.041119 1.89856 0)
(-0.0360367 1.85895 -3.4755e-20)
(-0.0159296 1.84656 -1.70786e-20)
(-0.100842 1.84662 8.91432e-21)
(-0.0691589 1.85437 -2.27634e-20)
(-0.07421 1.88146 -3.02517e-20)
(1.01221 0.0189369 1.77252e-19)
(1.01137 0.00217487 -2.18932e-19)
(1.00559 0.018992 -1.83797e-19)
(0.992957 0.0158886 2.34479e-19)
(1.04355 0.0194816 0)
(1.03564 0.0113204 0)
(1.0645 0.038045 0)
(1.05086 0.0234767 0)
(1.05255 0.0116394 0)
(1.10327 0.0765155 0)
(1.07967 0.0486738 0)
(1.08857 0.0360642 0)
(-0.010408 1.81235 -5.74775e-22)
(-0.0151828 1.80137 0)
(-0.0119853 1.80537 0)
(-0.00949374 1.82723 5.18439e-21)
(-0.00761888 1.82879 -2.31739e-22)
(-0.0207233 1.79823 5.13922e-21)
(-0.0212252 1.79692 -5.1702e-21)
(-0.0252418 1.79742 0)
(-0.0226956 1.79774 0)
(-0.021624 1.7976 0)
(-0.0255467 1.79037 0)
(-0.0219778 1.77797 0)
(0.458526 1.38013 3.72839e-19)
(0.413785 1.41158 1.36969e-19)
(0.627461 2.40501 -6.57393e-20)
(0.429718 2.55514 1.60333e-19)
(0.526903 2.13411 -4.30648e-20)
(1.02119 -0.00786486 0)
(1.01544 -0.00972167 0)
(1.01568 -0.015628 0)
(1.0077 -0.00105638 0)
(1.00441 -0.00126819 0)
(1.00719 -0.00480524 0)
(1.00936 -0.00367536 0)
(1.01411 -0.00415011 0)
(1.02495 0.0185633 1.70768e-19)
(1.0182 0.0241326 -2.17705e-19)
(1.02506 0.0159392 -1.70288e-19)
(1.02052 0.00966928 2.1334e-19)
(0.775775 1.29099 0)
(0.712649 1.34574 2.56756e-19)
(0.869409 1.19938 1.48876e-19)
(0.918192 1.15767 -1.97713e-19)
(1.14252 2.60575 -2.34648e-19)
(0.833688 0.10266 1.16044e-19)
(1.11569 0.0944632 0)
(1.16572 0.170058 2.60648e-20)
(1.17003 0.145162 1.1497e-21)
(0.969353 0.122774 0)
(0.173579 2.9677 2.53667e-20)
(0.131124 2.87515 -2.84582e-19)
(0.0471495 2.35538 1.93895e-19)
(0.114457 0.136468 -7.5046e-20)
(0.338024 3.43403 -1.87032e-19)
(0.198367 3.32815 0)
(0.230139 3.36933 2.43405e-19)
(0.264315 3.04921 -2.44178e-19)
(0.367934 3.20937 0)
(0.00797662 3.12002 1.09239e-20)
(0.0189603 3.12893 -1.42649e-19)
(0.0170348 3.12458 2.09212e-19)
(0.0384804 3.13988 0)
(0.0367139 3.15197 0)
(1.18484 2.6451 0)
(0.503472 0.84526 -8.7161e-20)
(1.04133 0.966484 -8.09072e-20)
(0.951846 1.05183 0)
(0.79077 0.94553 2.15462e-20)
(1.02718 0.869488 1.19102e-20)
(0.388617 0.480515 -2.14716e-19)
(0.721485 0.326059 -9.12123e-21)
(0.706038 0.282984 8.75316e-20)
(0.622152 0.43086 7.05551e-21)
(0.566755 0.403044 -2.90899e-19)
(0.704774 0.353292 0)
(0.721605 0.425413 1.44088e-19)
(0.730522 0.410609 0)
(0.661597 0.409113 0)
(0.663235 0.328968 0)
(0.736871 0.592443 5.19656e-20)
(1.16834 0.261957 1.14105e-20)
(1.18123 0.401711 0)
(1.20078 0.348282 0)
(0.764563 0.215437 1.30994e-19)
(0.788178 0.522006 -7.32649e-20)
(0.712343 0.507195 1.17996e-19)
(0.906001 0.393678 -1.11101e-19)
(1.02218 0.0192476 1.17243e-19)
(1.01957 0.0154695 -1.20393e-19)
(1.01563 0.0214273 0)
(1.02634 -0.0144518 0)
(1.02467 -0.0179433 -1.07305e-19)
(1.01781 -0.0236234 1.06248e-19)
(1.03515 0.00611979 0)
(1.02904 0.0152393 0)
(1.01106 0.00408673 0)
(1.01502 0.00780442 0)
(1.01562 0.00400257 0)
(1.01347 0.00170904 0)
(-0.189748 1.34895 0)
(-0.159252 1.38492 0)
(-0.0798607 1.07143 1.60209e-19)
(0.328476 1.27833 1.18178e-19)
(0.153264 1.14817 2.61674e-19)
(0.238266 1.20365 -4.1914e-19)
(0.176553 1.17515 0)
(-0.122614 1.96747 2.90465e-19)
(-0.273012 1.85113 0)
(0.514472 2.2301 6.28833e-20)
(0.435918 2.45962 9.19416e-20)
(0.156531 1.68567 -2.54728e-19)
(0.412717 1.1712 1.20183e-19)
(0.244815 1.14657 -9.55842e-20)
(0.512367 1.25065 2.48703e-19)
(0.400021 1.78454 0)
(0.49627 1.78233 -1.90016e-19)
(-0.243125 2.04844 7.26703e-23)
(-0.0605499 2.13303 0)
(-0.275287 2.23053 2.36705e-21)
(-0.237412 2.12714 0)
(-0.082225 2.31116 -4.03406e-20)
(-0.0352312 2.16667 0)
(-0.115926 1.781 -9.19678e-21)
(-0.15489 1.831 0)
(-0.149407 1.70831 0)
(-0.122815 1.734 1.03648e-20)
(-0.0556436 1.94993 -5.54582e-21)
(-0.0403586 2.03611 5.66259e-20)
(-0.0360247 1.99385 3.80535e-22)
(-0.0605974 1.82707 1.02998e-20)
(-0.0744594 1.8195 4.88501e-21)
(-0.0248204 1.75105 0)
(-0.0174346 1.75521 0)
(-0.232295 1.90884 -1.64018e-21)
(-0.212919 1.74111 -5.78583e-21)
(-0.190919 1.83839 7.02972e-21)
(-0.324301 1.90672 0)
(-0.0164326 1.8176 -1.96841e-20)
(-0.0149698 1.82564 9.1698e-21)
(-0.0152109 1.82659 -2.7278e-21)
(-0.0480242 1.82141 -1.23127e-20)
(-0.0239324 1.84336 -4.58185e-21)
(-0.0339516 1.85063 2.41893e-20)
(1.02321 0.00732549 -1.14305e-19)
(1.02021 0.00687101 1.16357e-19)
(1.01649 -0.000980978 0)
(0.997502 0.0466343 1.67464e-19)
(0.992482 0.0336374 -1.95266e-19)
(0.966421 0.0228079 2.26285e-19)
(0.995297 0.0788407 -2.18035e-20)
(1.02709 -0.00327563 0)
(1.03375 0.0132275 9.72421e-20)
(1.02751 0.00189788 -9.69951e-20)
(1.04319 0.0382988 -5.33038e-21)
(1.04583 0.0274129 4.73258e-20)
(1.03833 0.0480729 0)
(1.03012 0.0405907 -1.76409e-20)
(1.02608 0.0256205 0)
(1.02215 0.0219317 0)
(1.03819 0.00803491 0)
(1.03404 0.00839116 0)
(1.0333 0.02491 3.67856e-20)
(1.03584 0.0179025 -8.29636e-20)
(1.03389 0.0290491 -3.70447e-20)
(1.03399 0.0288814 -4.28627e-20)
(1.035 0.0571897 7.79293e-20)
(1.06504 0.0520413 0)
(1.06824 0.0935309 0)
(-0.0169428 1.818 -7.89252e-21)
(-0.0163544 1.80609 -6.57275e-22)
(-0.0184733 1.80696 0)
(-0.0120844 1.81887 8.18531e-21)
(-0.0108118 1.81388 1.18082e-21)
(-0.0110201 1.81793 -1.21649e-21)
(-0.0109092 1.8432 1.45664e-20)
(-0.0134863 1.83286 -9.747e-22)
(-0.0150947 1.83494 4.93265e-21)
(-0.00602823 1.83364 -7.62637e-21)
(-0.00616314 1.8357 9.38027e-21)
(-0.0251847 1.80152 2.10859e-22)
(-0.0231916 1.80242 8.69467e-21)
(0.520329 1.33365 -1.85725e-19)
(0.532855 1.37513 -1.97681e-19)
(0.660481 1.38496 -2.48163e-19)
(0.531341 1.43106 -1.33324e-19)
(0.559615 1.42746 0)
(0.601134 2.38029 5.57489e-20)
(0.697729 2.33905 9.73512e-20)
(0.415749 2.54117 4.07245e-20)
(0.436599 2.6171 -6.81391e-20)
(0.560132 2.55487 1.09546e-19)
(0.522047 2.44498 0)
(0.529246 2.44816 -1.50918e-19)
(0.121871 2.63051 3.0737e-19)
(0.289846 2.63257 -1.15383e-20)
(0.240468 2.62016 -4.09389e-19)
(0.896006 2.35295 7.42345e-20)
(0.803015 2.32734 0)
(1.01092 -0.00038023 3.87948e-21)
(1.01464 -0.00506221 -3.21028e-21)
(1.01692 -0.00342204 -5.73794e-20)
(1.01394 -0.000956215 5.77346e-20)
(1.01238 0.000809072 0)
(0.643155 1.24569 0)
(0.643272 1.14272 0)
(0.732803 1.07898 0)
(0.636391 1.09759 0)
(1.17133 2.62197 2.36567e-20)
(1.04759 2.3524 0)
(0.847002 2.27627 -8.9121e-22)
(0.80389 2.49275 0)
(0.894658 2.58209 8.26357e-21)
(0.931704 2.54344 -5.38297e-21)
(0.84037 0.136992 0)
(0.808384 0.138278 3.30826e-20)
(0.917622 0.126854 1.70701e-19)
(0.860667 0.117503 -6.85569e-20)
(0.857003 0.070675 -2.05892e-19)
(1.02085 0.208006 -1.01133e-19)
(0.958617 0.281522 -5.79479e-21)
(0.885824 0.269117 1.53595e-19)
(0.961911 0.205946 1.15826e-19)
(0.932415 0.160942 -2.13996e-19)
(0.907035 0.172812 2.7502e-20)
(0.92112 0.231726 -5.43385e-20)
(0.905361 0.193185 0)
(0.965246 0.159336 1.02377e-19)
(1.00027 0.159396 0)
(0.998083 0.194275 0)
(1.05173 0.101841 3.41041e-20)
(1.02585 0.148295 -5.85549e-21)
(1.01653 0.207246 -1.67605e-20)
(1.05197 0.180834 0)
(1.01426 0.0229182 8.80791e-20)
(1.02682 0.0426112 1.03153e-19)
(1.02432 0.0281933 -8.65095e-20)
(1.02037 0.0484856 -6.95561e-20)
(1.00581 0.0515025 -1.18133e-19)
(0.971895 0.122621 0)
(0.984246 0.0764298 0)
(0.969793 0.046591 -8.16487e-20)
(0.933303 0.0553493 3.41572e-20)
(1.00178 0.0783234 9.91728e-20)
(1.02309 0.102151 -1.01894e-19)
(1.03104 0.119574 9.02362e-20)
(0.991198 0.124066 0)
(1.03232 0.0919138 0)
(1.02094 0.0768636 -4.23132e-20)
(1.01716 0.0800991 -7.9203e-20)
(0.587997 1.06474 -4.11007e-20)
(0.649253 1.41487 7.85259e-20)
(1.16519 2.75848 4.48263e-20)
(1.2332 3.08559 -3.43982e-20)
(1.23983 2.71909 2.63481e-19)
(1.27373 2.71389 -1.61305e-19)
(1.15364 2.35011 1.012e-20)
(1.22148 2.97915 8.43594e-20)
(1.24105 2.9499 -9.18382e-20)
(1.23597 3.24175 -1.41563e-19)
(1.35982 2.97432 1.64133e-19)
(1.29996 2.89731 0)
(0.500882 0.851305 -4.74548e-21)
(0.144394 1.2932 1.55712e-19)
(0.540186 0.545543 1.44337e-19)
(0.351337 0.312136 1.52374e-19)
(0.562487 0.452852 1.63329e-19)
(0.562685 0.498372 -2.53831e-19)
(0.549477 0.533883 2.07478e-19)
(0.514554 0.484911 -8.53198e-20)
(0.47018 0.415825 1.96752e-19)
(0.770873 0.260033 -7.3115e-20)
(0.737899 0.297163 0)
(0.732319 0.244476 4.51525e-21)
(0.702795 0.519482 7.39598e-20)
(0.6915 0.482433 -2.73962e-19)
(0.607392 0.51105 6.93249e-21)
(0.636286 0.481592 0)
(0.616987 0.73747 5.96981e-20)
(0.782997 0.766376 1.65442e-20)
(0.706539 0.853806 -2.30231e-20)
(0.821303 0.791212 -5.89861e-21)
(0.861349 0.822669 5.87824e-21)
(0.86663 0.826918 -6.03922e-21)
(0.781653 0.61568 -8.91671e-20)
(0.863581 0.685601 5.49872e-21)
(0.926148 0.694664 0)
(0.907147 0.665675 -7.28337e-21)
(0.983332 0.301026 2.44768e-20)
(1.05828 0.27404 5.92319e-21)
(1.0052 0.252226 4.08299e-20)
(0.964279 0.339538 -5.73694e-20)
(0.999115 0.400139 0)
(1.04823 0.391493 0)
(0.883289 0.324039 1.50546e-21)
(0.829893 0.270197 0)
(0.83714 0.270396 7.8684e-20)
(0.88826 0.273287 -5.45936e-21)
(0.891587 0.392318 3.04198e-19)
(0.841376 0.456189 7.82954e-20)
(0.849801 0.419367 -9.94177e-20)
(0.797269 0.411777 1.06617e-19)
(0.78395 0.412467 7.30239e-20)
(0.773205 0.403517 -7.0916e-20)
(1.02608 -0.0125816 9.29963e-20)
(1.02125 -0.00726984 0)
(1.0188 -0.00472326 6.19017e-20)
(1.02387 -0.0105455 -1.39246e-19)
(1.02823 -0.000385976 6.71393e-20)
(1.02419 0.012798 -1.42194e-19)
(1.02514 0.0152112 0)
(1.02339 0.0134167 -2.94981e-20)
(1.01685 0.00651841 7.44204e-20)
(1.01628 0.00924612 -3.79369e-20)
(1.01987 0.0111146 2.80405e-20)
(-0.103892 1.60811 0)
(-0.184054 1.68405 0)
(-0.156421 1.4929 0)
(-0.0907026 1.52271 0)
(-0.348497 1.59249 -2.08125e-19)
(-0.307397 1.40885 6.39252e-20)
(-0.339547 1.8639 6.57204e-20)
(-0.375821 1.65714 -9.76415e-20)
(-0.279076 1.74937 1.80939e-20)
(-0.298378 1.7363 -1.40239e-20)
(-0.325698 1.56445 4.11275e-20)
(-0.297675 1.56816 7.03992e-20)
(-0.250461 1.59401 5.13475e-21)
(-0.236887 1.65241 1.64468e-21)
(-0.287575 2.27555 -7.01018e-22)
(-0.281705 2.38714 0)
(-0.3294 2.32109 -4.00675e-20)
(-0.403828 2.00047 -5.21737e-20)
(0.263562 2.23154 4.55254e-20)
(0.17104 2.64463 0)
(0.228514 2.56493 -1.26299e-20)
(0.345494 2.55228 8.82426e-21)
(0.00732544 2.29898 1.20087e-19)
(-0.1568 2.32516 -7.4597e-20)
(-0.124744 2.57549 0)
(-0.183341 1.91817 -1.07376e-20)
(-0.119882 1.90259 -4.08546e-20)
(-0.136524 1.88147 0)
(-0.127864 1.996 -1.80307e-21)
(-0.208254 2.00689 9.45879e-21)
(-0.0707696 1.77211 2.0768e-21)
(-0.0451321 1.77355 -2.99371e-20)
(-0.0418229 1.78839 8.65568e-21)
(-0.069655 1.79701 9.86299e-21)
(-0.0976534 1.79156 0)
(-0.0346409 1.78911 0)
(-0.0229729 1.77986 9.66832e-21)
(-0.026416 1.79541 -3.05082e-21)
(-0.0276648 1.7924 0)
(-0.019662 1.76829 7.38136e-21)
(-0.0174164 1.76595 -1.45284e-20)
(1.03441 0.0149642 0)
(1.03865 0.0176871 -9.11729e-21)
(1.03972 0.0195126 -6.60007e-20)
(1.03745 0.0201694 0)
(1.0371 0.0219831 0)
(1.04222 0.00972628 -2.33192e-21)
(1.04047 0.00823341 1.10531e-19)
(1.03843 0.00999909 1.33958e-19)
(1.03502 0.0092624 0)
(1.02971 0.00596264 0)
(1.03462 0.0160854 6.71799e-20)
(1.02705 0.00965046 0)
(1.0287 0.00765826 0)
(-0.019143 1.82238 0)
(-0.0234353 1.80267 7.58007e-22)
(-0.0209441 1.81615 4.68311e-21)
(-0.0261989 1.79711 0)
(-0.025243 1.80546 6.06464e-21)
(-0.0256461 1.80231 -2.96496e-21)
(-0.0273912 1.79874 0)
(0.414407 1.70655 0)
(0.537189 1.34903 2.91242e-19)
(0.502193 1.38278 0)
(0.517192 1.36577 -3.74343e-19)
(0.517677 1.38065 0)
(0.523779 1.38114 1.70688e-19)
(1.012 2.70869 -1.44935e-21)
(0.927709 2.39904 -9.09696e-20)
(0.843014 2.12248 1.37915e-19)
(0.826144 2.32082 5.15858e-20)
(0.827195 2.52215 0)
(0.875828 2.52524 0)
(0.862828 2.35018 0)
(0.890316 2.27747 -1.77919e-19)
(0.7136 2.48579 -1.96065e-20)
(0.786453 2.49768 -9.53476e-21)
(0.781768 2.46918 7.67348e-21)
(0.679749 2.3317 0)
(0.767792 2.32188 0)
(0.734749 2.33062 -9.15372e-20)
(0.750485 2.48223 0)
(0.600128 1.08077 0)
(0.462337 0.925071 -1.53994e-22)
(0.526424 0.94331 -7.58184e-22)
(0.520043 1.03841 0)
(0.512437 0.99795 1.52592e-21)
(0.724843 0.881852 7.151e-21)
(0.761377 1.00739 0)
(0.728008 0.958074 -2.59664e-20)
(0.590834 1.0268 0)
(0.596174 0.93421 0)
(1.15497 2.77625 2.22838e-20)
(1.13737 2.84147 5.37071e-20)
(0.947383 2.37374 -1.20092e-19)
(0.910462 2.34754 1.50896e-20)
(1.1128 2.74563 0)
(1.05805 2.71815 -1.857e-20)
(1.06321 2.48182 -3.43488e-20)
(0.947144 2.20888 -1.2817e-20)
(0.473048 1.39605 0)
(0.478697 1.04285 3.60131e-20)
(0.559755 1.11955 0)
(0.847888 0.216059 0)
(0.814723 0.164995 0)
(0.772271 0.180206 0)
(0.832639 0.231518 -1.24532e-19)
(0.780542 0.230985 7.73849e-20)
(0.936153 0.0524489 -7.07902e-20)
(0.941377 0.0989713 0)
(0.925296 0.106714 3.17996e-20)
(0.889309 0.0820493 1.30808e-19)
(0.887921 0.0537979 -8.06533e-20)
(1.16866 3.37772 -4.21902e-19)
(1.21909 3.29788 0)
(1.13719 3.39597 -8.07046e-19)
(0.637953 3.55658 7.09827e-19)
(0.846729 3.12221 1.53991e-19)
(0.471836 0.879511 8.50392e-20)
(0.396974 0.865903 0)
(0.331156 0.576764 -3.16282e-20)
(0.413876 0.687375 1.42626e-19)
(0.533282 0.550394 -4.35552e-20)
(0.515466 0.569608 4.87633e-20)
(0.622758 0.544257 1.05973e-19)
(0.647876 0.555029 0)
(0.608417 0.62267 0)
(0.571443 0.561135 0)
(0.909417 0.578864 -1.99362e-20)
(0.841333 0.507913 -7.51438e-20)
(0.859609 0.548372 3.80592e-20)
(0.908215 0.484045 -5.50816e-20)
(1.01601 0.461876 0)
(1.00633 0.536146 -3.18542e-21)
(0.832455 0.366275 -1.58799e-19)
(0.837415 0.352909 -1.7681e-19)
(0.80707 0.363472 1.24125e-19)
(0.789695 0.345625 -1.39765e-19)
(0.829795 0.298933 -1.04317e-19)
(0.785921 0.306869 1.28507e-19)
(1.03445 -0.000791281 -6.99981e-20)
(1.0372 -0.000499187 1.44734e-19)
(1.02937 -0.0111521 8.79624e-20)
(1.03443 -0.0102786 -1.06271e-19)
(1.03807 0.00626094 0)
(1.03829 0.00712727 -1.74187e-19)
(-0.369633 1.96577 1.2948e-20)
(-0.34382 1.88323 0)
(-0.416537 1.98595 -1.51655e-19)
(-0.405834 1.98112 1.53207e-19)
(-0.373116 1.85984 -1.18792e-19)
(-0.396579 1.87824 0)
(-0.042732 1.82204 0)
(-0.0336689 1.80195 -3.37685e-21)
(-0.0282202 1.8022 3.04548e-21)
(-0.0269326 1.80705 1.1022e-21)
(-0.0254464 1.82281 -6.30411e-21)
(-0.0311227 1.82412 3.69398e-21)
(0.471734 1.42046 1.55366e-19)
(0.444193 1.42968 -1.64287e-19)
(0.486347 1.34178 1.86526e-19)
(0.4521 1.36857 -8.91781e-21)
(0.629061 1.27657 0)
(0.550153 1.37883 2.16628e-19)
(0.576351 1.35654 -2.11821e-19)
(0.50508 1.30971 -1.79355e-19)
(0.509926 1.2649 0)
(0.548879 1.18455 0)
(0.694893 2.44946 2.92044e-20)
(0.698315 2.46268 2.51167e-19)
(0.728687 2.46901 -1.68585e-19)
(0.684428 2.46728 -4.86764e-20)
(0.624073 2.60245 4.32384e-20)
(0.587389 2.59868 -1.24587e-19)
(0.94275 2.35507 -7.4474e-20)
(0.983801 2.38268 0)
(0.866012 2.11502 -1.03475e-19)
(1.02789 2.70345 0)
(1.0234 2.69052 0)
(0.602473 2.27551 8.15577e-20)
(1.02201 3.16887 1.93127e-19)
(0.891428 3.03147 -1.47517e-19)
(0.297375 0.981769 0)
(0.344713 0.834042 -5.89389e-20)
(0.460916 0.784512 -2.34072e-20)
(0.413339 2.02806 0)
(0.480469 2.79959 -1.09071e-19)
(0.439214 2.58971 0)
(0.626855 0.679792 -1.22628e-19)
(0.70524 0.671969 1.53347e-19)
(0.735085 0.610855 -1.48131e-19)
(0.623443 0.639489 -1.83335e-20)
(0.675538 0.599475 -7.46804e-20)
(1.00568 2.77942 -1.45831e-19)
(1.03835 2.84736 1.34686e-19)
(0.658379 2.1874 3.80197e-20)
(0.571106 1.73305 -3.67258e-20)
(0.722433 1.91789 3.95584e-20)
(0.988684 2.47581 -2.64344e-20)
(1.0012 2.47263 -8.36823e-20)
(0.667835 1.91035 -3.33567e-21)
(0.461208 1.3442 -2.67856e-20)
)
;

boundaryField
{
    wall-4
    {
        type            noSlip;
    }
    velocity-inlet-5
    {
        type            fixedValue;
        value           uniform (1 0 0);
    }
    velocity-inlet-6
    {
        type            fixedValue;
        value           uniform (0 3 0);
    }
    pressure-outlet-7
    {
        type            zeroGradient;
    }
    wall-8
    {
        type            noSlip;
    }
    frontAndBackPlanes
    {
        type            empty;
    }
}


// ************************************************************************* //
