/*--------------------------------*- C++ -*----------------------------------*\
| =========                 |                                                 |
| \\      /  F ield         | OpenFOAM: The Open Source CFD Toolbox           |
|  \\    /   O peration     | Version:  4.0                                   |
|   \\  /    A nd           | Web:      www.OpenFOAM.org                      |
|    \\/     M anipulation  |                                                 |
\*---------------------------------------------------------------------------*/
FoamFile
{
    version     2.0;
    format      ascii;
    class       volScalarField;
    location    "70";
    object      p;
}
// * * * * * * * * * * * * * * * * * * * * * * * * * * * * * * * * * * * * * //

dimensions      [0 2 -2 0 0 0 0];

internalField   nonuniform List<scalar> 
918
(
0.557647
1.18156
0.00128913
0.557098
-0.0125667
1.14857
-0.511053
0.658297
0.537849
-0.107173
-0.0519113
0.540238
1.00914
0.774619
-1.12351
-0.0104968
0.65208
-0.381219
0.536965
-0.0601134
0.687721
0.544386
0.54741
0.537988
0.598248
0.749434
0.889987
0.0245303
0.00986224
0.00532098
-0.0119441
-0.0387908
-0.0329126
1.03224
1.0833
1.10598
0.505589
0.334106
-0.376436
-0.44943
-0.436629
-0.54466
0.657125
0.656567
-0.212763
0.661209
0.662505
0.524867
0.537218
0.53813
0.539147
0.538133
0.539513
0.40429
-0.107553
-0.138842
-0.0880337
-0.0817521
0.0527307
-0.0531103
-0.0556859
-0.050211
-0.0494764
0.454684
0.534437
0.530889
0.544427
0.553801
1.12111
1.09306
1.11919
1.03276
1.0493
0.987158
0.959776
0.795772
0.817314
0.758866
0.747059
-1.55439
-2.50453
-0.534415
-0.284216
-0.010622
-0.0083714
-0.00294187
0.649271
0.650654
0.651513
0.653469
1.07985
-0.378794
-0.479372
0.537107
0.535918
0.544233
0.544935
0.540955
0.540045
-0.05121
-0.0478814
-0.0509353
-0.0560933
-0.054372
0.673446
0.674673
0.538516
0.535519
0.561476
0.581743
0.571812
0.277949
0.608981
0.624818
0.581468
0.743867
0.736259
0.745854
0.863577
0.826603
0.927257
0.950518
0.0171499
-4.6035e-05
-0.0152184
-0.0194952
-0.018164
0.501416
0.49395
0.521486
0.509029
0.511539
0.250906
0.117625
0.419037
0.443832
-0.295635
-0.362477
-0.429117
-0.459831
-0.568355
0.612867
0.656093
0.654737
-0.222675
-0.150892
-0.284412
-0.0778027
-0.140861
0.515122
0.522143
0.517137
0.532702
0.527166
0.52913
0.54149
0.53856
0.54012
0.466402
0.589894
0.330534
0.295092
-0.242248
-0.154207
-0.241792
-0.0714811
-0.0692436
0.0668148
0.0924823
0.0394493
0.0276775
-0.0649229
-0.0587844
-0.0614982
-0.0476594
-0.046968
0.447416
0.43618
0.467387
0.474957
0.520781
0.52229
0.526797
0.52461
0.910681
0.932978
0.940491
0.914352
-3.49272
-6.27204
0.0400527
0.176287
-0.00673105
-0.00939385
0.00197646
-0.00586033
0.0002081
-0.00196029
-0.0077331
-0.0091924
-0.00428993
-0.00301465
0.64395
0.644921
1.00213
1.0091
0.977647
0.930559
0.52533
0.527401
0.532895
0.528779
-0.0466398
-0.0467188
-0.0463485
0.665623
0.67096
0.668475
0.239371
0.149449
0.329111
0.358313
0.637307
0.625905
0.635508
0.641336
0.676781
0.957885
0.976027
0.974369
0.982697
1.02681
1.04327
1.00849
0.480809
0.490821
0.485751
0.524524
0.522316
0.523204
0.519524
0.520491
0.518698
-0.0327159
-0.412316
0.491115
0.507922
0.493413
0.495719
0.692974
0.77156
0.653031
0.654423
0.654036
-0.00844019
-0.0669497
0.250234
0.216128
0.386839
0.423332
0.402264
0.881744
0.842319
0.892336
0.865786
0.82719
0.853022
-0.36386
-1.86198
-0.981865
0.524577
0.339631
0.426248
0.00946694
-0.00720802
-0.00267404
1.00179
1.07404
0.645661
0.820496
0.823123
0.714212
0.744803
0.79957
0.725178
0.759987
0.794946
0.776856
0.568804
0.504204
0.5202
0.840608
0.896301
0.119137
0.0572476
0.0134535
0.111401
0.168906
0.142905
1.03402
0.950002
1.02016
0.53528
0.536002
-0.00518459
-0.0183935
0.540252
0.540308
-0.0124754
-0.00153141
0.409783
-0.831113
0.0979797
0.528839
0.518722
0.535866
-0.0927172
0.35585
-0.0516876
0.0480514
-0.00874317
0.530422
0.465831
0.424859
0.000510472
-0.0195743
-0.0509471
-0.212724
0.53295
0.531254
0.535333
0.536274
0.536955
-0.0187057
-0.0143862
-0.0103004
-0.0477448
-0.04111
-0.0533007
0.49975
0.519193
-0.170403
0.53548
0.537616
0.537433
0.5307
0.536329
0.534582
-0.01044
-0.0154674
-0.017742
0.219481
0.351872
0.648696
0.734863
0.620956
0.397244
0.162775
0.552425
0.615533
0.521513
0.674704
0.651625
0.658059
0.163493
0.013134
0.172339
0.1141
0.526701
0.525424
0.516975
0.513933
0.530733
0.528848
0.533406
0.53043
0.53338
0.53476
-0.0489709
-0.0756247
-0.0847414
-0.151769
0.310547
0.571575
0.255045
0.284462
0.142207
-0.0461986
-0.0478262
-0.0496103
-0.0584094
0.00117732
-0.0243096
0.0427293
0.0429126
0.0145372
-0.0111633
-0.00851587
-0.0195106
-0.0138865
0.523683
0.523744
0.52814
0.536857
0.475506
0.479292
0.444087
0.464857
0.450098
0.388722
0.424095
0.399286
-0.00547063
0.0030846
-0.00242686
-0.017561
-0.0142731
-0.033465
-0.0303487
-0.0257622
-0.0217467
-0.0285991
-0.0453776
-0.0477249
-0.170813
-0.286751
0.988483
0.909428
0.13726
0.522095
0.528554
0.525313
0.530245
0.533373
0.53417
0.531876
0.528423
0.519419
0.52084
0.517712
0.518795
-0.10169
-0.243257
-0.0716068
-0.146351
0.145951
0.628601
0.363768
0.299031
0.294396
0.523291
0.91706
0.699837
0.668628
0.667381
-0.343196
0.045379
-0.279841
0.335186
0.162371
0.64845
0.697603
0.719671
0.667338
0.620402
-0.100033
0.556368
-0.0740096
-0.021633
0.180047
0.0556569
0.660202
0.639538
0.646922
0.65158
0.664854
0.642751
0.625467
0.62542
0.646327
0.650219
0.48311
0.250146
0.200707
0.162251
0.643018
0.516783
0.566591
0.490095
0.522008
0.52453
0.523182
0.50459
0.512189
0.507701
0.514281
0.517925
0.526453
0.526933
0.52219
0.524318
-0.0560643
-0.062579
-0.0248527
-0.135006
-0.127851
-0.189958
-0.058832
0.0744746
0.0360165
0.237373
0.34148
0.0521521
-0.0565378
-0.0290342
0.012655
0.179853
0.20831
0.0743292
0.162291
0.153522
0.134464
0.237521
0.24084
-0.0292633
-0.0308545
-0.0357525
-0.0378074
0.0190491
0.0905641
0.0997447
-0.00710683
-0.0127624
-0.0444502
-0.0444259
-0.0220617
-0.0273532
-0.02225
0.00486301
-0.052617
-0.0201099
-0.00618564
-0.00445516
-0.00540777
-0.0108954
0.518668
0.520264
0.520636
0.528048
0.540635
0.555233
0.52148
0.497752
0.488524
0.491541
0.464426
0.47472
0.470543
0.484123
0.505278
0.514002
0.512328
0.515169
0.497362
0.499143
0.48568
0.48933
0.464419
0.445014
0.433061
-0.0422953
-0.00363569
-0.0118216
-0.0376072
-0.0079377
-0.0199233
-0.0108912
0.00811198
-0.00832345
-0.00966624
-0.019814
-0.0261014
-0.0257561
-0.0728
0.0139018
-0.184244
-0.219686
-0.292772
0.890718
1.01493
0.81005
0.583027
0.603331
0.846666
0.931124
0.543218
0.735571
0.758716
0.587626
0.854863
0.526944
0.52654
0.52414
0.523619
0.524839
-0.00675518
0.0996244
0.0975633
0.161131
0.277662
0.389282
0.320211
0.194923
0.32494
0.327416
0.621582
0.633788
0.588838
0.612891
0.613244
0.425383
0.501043
0.552672
0.513865
0.565678
0.587267
0.541335
0.57426
0.523745
0.479307
0.475485
0.425012
0.444684
0.420262
0.403383
0.516505
0.493728
0.50451
0.494929
0.515729
0.543751
0.54044
0.562261
0.577416
0.498328
0.453211
0.462597
0.492779
0.454252
0.469845
0.485878
0.233414
0.135504
0.218403
-0.0665252
0.00406834
-0.00842153
-0.0571413
-0.00572458
0.278457
-0.412313
-0.38905
-1.01593
0.504663
0.954513
0.591319
0.567175
0.665855
0.651386
0.657632
0.674655
0.672832
0.63164
0.640761
0.645575
0.596376
0.617098
0.636644
0.632645
0.524927
0.382255
0.381636
0.329328
0.199431
0.239369
0.435316
0.359613
0.284711
0.284821
0.456766
0.343264
0.413319
0.446704
0.377953
0.332635
0.535314
0.601338
0.594978
0.568263
0.479003
0.491072
0.515599
0.549033
0.572778
0.605519
0.513699
0.519644
0.520876
0.518344
0.515614
0.518717
0.519008
0.521581
0.522162
0.525184
0.524252
-0.0524557
-0.0379835
-0.0507691
-0.0629581
-0.0180414
-0.0202273
0.0233179
0.0116951
-0.0152237
-0.0111464
-0.0328146
-0.0368387
-0.0334384
-0.0255289
0.102909
0.11569
0.101006
0.0611723
0.250833
0.380786
0.455187
0.330334
0.224151
0.248696
0.267092
-0.0118947
0.0136856
0.000931295
0.0406849
0.0325233
-0.0387179
-0.0424966
-0.0385294
-0.0307272
-0.0224511
-0.0378197
-0.0433564
-0.0344026
-0.0388607
-0.041558
-0.045182
0.500025
0.493483
0.495057
0.488977
0.487707
0.502027
0.506358
0.5083
0.513803
0.516238
0.506141
0.511577
0.515578
-0.011795
-0.0349283
-0.0383952
-0.0295265
-0.0314961
-0.0288809
-0.030479
0.123779
0.0546633
0.0584345
0.011285
-0.120953
-0.0629894
0.492288
0.491093
0.480464
0.721487
0.570724
0.491591
0.588696
0.694342
0.276487
0.4732
0.308331
0.888688
0.785339
0.931638
0.542574
0.246324
0.410591
0.453017
0.266684
0.342527
0.324744
0.213826
0.244532
0.282906
0.381737
0.266454
0.243297
-0.00023157
0.19058
0.302456
0.284307
0.408819
0.469425
0.267414
0.187137
0.142119
0.606185
0.625776
0.638762
0.611485
0.633039
0.581633
0.57391
0.589044
0.597035
0.591358
-0.744257
-0.450641
-1.39747
-0.720355
-0.264825
0.535247
0.507432
0.770031
0.646052
0.680819
0.665497
0.624621
0.594457
0.61915
0.641536
0.340349
0.450893
0.42611
0.431875
0.334635
0.264845
0.563176
0.560217
0.593461
0.61674
0.588407
0.618661
0.511514
0.51124
0.510699
0.506932
0.505194
0.507556
0.0592295
0.0267807
0.0678706
0.0505637
0.0280682
0.0156299
-0.0105051
-0.0204878
-0.0276411
-0.0271719
-0.0128543
-0.00872596
0.172368
0.109681
0.0301884
0.0590171
-0.00171126
-0.0700721
-0.0892456
0.0162007
0.112298
0.102492
0.405633
0.655142
0.475188
0.64261
0.485175
0.540956
0.468927
0.460255
0.485174
0.380393
0.460773
0.251269
-0.256982
-0.166139
0.795395
0.80607
0.581805
0.407052
0.174737
0.351956
0.541396
0.471184
0.506565
0.575639
0.562671
0.0305775
0.0880112
0.375526
0.602298
0.241646
0.232716
0.226079
0.410661
0.328703
)
;

boundaryField
{
    wall-4
    {
        type            zeroGradient;
    }
    velocity-inlet-5
    {
        type            zeroGradient;
    }
    velocity-inlet-6
    {
        type            zeroGradient;
    }
    pressure-outlet-7
    {
        type            fixedValue;
        value           uniform 0;
    }
    wall-8
    {
        type            zeroGradient;
    }
    frontAndBackPlanes
    {
        type            empty;
    }
}


// ************************************************************************* //
