/*--------------------------------*- C++ -*----------------------------------*\
| =========                 |                                                 |
| \\      /  F ield         | OpenFOAM: The Open Source CFD Toolbox           |
|  \\    /   O peration     | Version:  4.0                                   |
|   \\  /    A nd           | Web:      www.OpenFOAM.org                      |
|    \\/     M anipulation  |                                                 |
\*---------------------------------------------------------------------------*/
FoamFile
{
    version     2.0;
    format      ascii;
    class       surfaceScalarField;
    location    "11";
    object      phi;
}
// * * * * * * * * * * * * * * * * * * * * * * * * * * * * * * * * * * * * * //

dimensions      [0 3 -1 0 0 0 0];

internalField   nonuniform List<scalar> 
1300
(
3.75095
5.62643
-6.27314
3.75095
-6.14973
5.62643
-4.44577
4.44577
-1.51376
1.51376
1.87621
1.87475
-4.86849
4.86849
-4.96796
4.96796
-2.87602
2.87602
-5.24657
5.24657
-5.06693
5.06693
4.68859
-4.68859
-4.96868
4.96868
-1.93835
1.93835
-4.69877
4.69877
3.17757
-3.17757
-5.18879
5.18879
-0.559588
0.559588
-0.554753
4.30571
3.1962
3.1962
-2.60187
2.60187
-4.84419
4.84419
6.21853
-6.21853
9.50397
-9.50397
-3.23083
-3.38364
1.36534
-8.1114
-4.78439
-4.78439
-8.44039
8.44039
-2.81396
2.81247
2.98334
-2.98334
-1.73509
1.73509
-4.43655
-0.00921882
-4.43655
4.45216
-0.00639671
4.45216
-1.64869
0.13493
-1.64869
4.09502
-4.09502
1.32985
0.183913
1.32985
3.04703
-3.04703
-1.87688
3.75309
1.87407
-1.87255
6.17826
-1.8784
3.75315
-4.94495
4.94495
-4.91366
0.0451699
-4.91366
4.85434
0.0141578
4.85434
-5.2845
5.2845
-4.90175
-0.0662087
-4.90175
5.03998
-0.0720207
5.03998
3.08367
-3.08367
-2.90062
0.0245972
-2.90062
2.83238
0.0436399
2.83238
0.353543
5.27289
-5.97997
8.79244
-5.27289
0.0263208
5.20859
0.0379791
5.20859
-5.10541
0.0384791
-5.10541
5.00852
0.0584108
5.00852
4.76961
-0.0810212
4.76961
-4.80995
0.121356
-4.80995
-3.34512
-3.29638
-5.05785
0.0891719
-5.05785
-1.96931
0.0309553
-1.96931
1.89709
0.0412634
1.89709
-3.65157
3.65157
-4.52313
-0.175643
-4.52313
3.12579
0.0517752
3.12579
1.86808
1.88288
5.61903
-5.61903
2.44146
-5.17743
-0.0113674
-5.17743
-5.21324
-4.29073
5.21324
-0.0244467
-0.874735
0.315147
-0.874735
3.16143
0.034774
3.16143
2.73621
0.0961779
-2.73621
0.134331
3.46518
-3.46518
1.97509
0.626783
1.97509
-5.57464
5.57464
4.94569
0.0628306
-4.94569
0.101503
6.15726
0.0612701
6.15726
-6.19962
-0.0189106
-6.19962
3.37336
-6.75701
-3.37716
4.88267
0.0860133
-4.88267
0.0982775
3.00265
-0.0193026
3.00265
-2.93034
2.93034
-2.97896
-0.00438096
-2.97896
-2.12756
0.392464
-2.12756
1.42037
0.314721
1.42037
-4.3766
-0.059949
-4.3766
-4.40484
-0.118284
4.40484
0.0473184
0.738004
-0.738004
-1.77996
0.131264
-1.77996
-4.23179
-0.144808
4.23179
-0.136772
-4.00831
-0.0867034
-4.00831
-3.00318
0.024213
3.00318
0.0438556
3.11106
0.0503671
-3.11106
0.0640271
-1.87105
3.75392
-1.87991
3.75398
-4.73617
-0.208784
-4.73617
5.0631
-0.118146
5.0631
4.89505
-0.196282
-4.89505
-0.0186105
4.85825
-0.00391592
4.85825
-5.23884
-0.0456557
-5.23884
5.27557
0.00892582
5.27557
4.85531
0.00293881
-4.85531
-0.0464403
5.10223
-0.0622484
5.10223
3.13093
-0.0472631
3.13093
-3.05117
-0.0325019
-3.05117
2.93772
-2.93772
2.92173
0.0159894
-2.92173
0.0211109
-11.133
11.1141
-0.0354736
-11.0975
5.17311
5.17311
4.16512
0.604489
4.16512
-5.0172
0.207251
-5.0172
3.35014
-6.72729
3.31693
-6.66205
3.31702
-11.4284
3.35384
-6.65022
5.19138
-5.19138
5.13507
0.0563133
-5.13507
0.0772165
-2.00229
0.0329859
-2.00229
-3.17656
-0.475011
-3.17656
4.09706
-0.445486
4.09706
-3.00855
3.00855
-3.07123
0.062674
3.07123
0.0545667
5.1503
-0.048072
-5.1503
-0.0271239
1.10077
0.229083
-1.10077
0.22603
3.66263
-0.197442
3.66263
-3.2843
-0.180884
-3.2843
-2.01491
0.0126162
2.01491
-0.0398195
-5.82055
0.245903
-5.82055
-11.1906
0.0930891
-11.1526
-6.10653
-6.10653
2.33386
11.1263
-3.02526
-0.0259029
3.02526
-0.0226168
2.94955
0.0590074
-2.94955
0.0192057
-2.93715
-0.00057377
2.93715
-0.0068058
-2.50688
0.37932
-2.50688
-0.799225
0.799225
-1.13245
0.333224
1.13245
0.287922
1.16159
-0.423586
1.16159
1.85327
0.0438194
-1.85327
0.0733147
-3.92156
-0.0867583
-3.92156
5.12322
-0.0601237
5.12322
-3.1898
-0.0944965
3.1898
-0.0588718
-0.0334866
11.1476
-5.13963
0.0342158
5.13963
-11.2088
11.243
-3.19388
0.687005
3.19388
0.971243
5.30086
0.273787
-5.30086
0.283656
5.23423
0.0413468
-5.23423
0.0428433
-2.76727
-0.409293
-2.76727
-4.44945
-0.286721
4.44945
-0.352393
-11.4768
-0.199877
11.6767
-11.4184
6.02042
0.13684
-6.02042
11.3799
-0.555678
-0.182326
0.555678
0.243547
1.6899
-0.528315
1.6899
3.82756
-0.164932
-3.82756
-0.0939984
-5.16705
-0.0717935
5.16705
-0.043824
-2.2095
-0.557769
2.2095
-0.519592
-4.27023
4.305
1.90803
-3.36628
-3.39073
-7.65701
1.85247
1.90145
4.29393
-7.0405
-4.38792
-6.94222
7.28162
-6.99796
-9.32156
9.24054
7.43232
-7.51903
-5.77262
5.82719
6.40827
-6.36442
1.88023
1.87286
10.0437
-9.99851
-11.0877
10.8789
10.1522
-10.2184
10.8168
-10.8625
-12.4322
12.4735
-5.74091
5.76551
-6.60594
6.57344
-6.78209
6.72322
-3.31363
-3.34842
9.0771
-8.98793
11.7661
-11.7775
-8.91344
8.7378
3.38353
0.921471
3.4339
-1.88479
3.76502
-1.86836
3.77639
3.37149
-6.68512
3.3558
-6.74653
6.06448
5.70164
-6.04004
-1.61697
-5.8697
5.8504
-5.85997
5.85316
8.72455
-8.73377
-1.88509
3.75795
-1.86889
3.77034
-3.41687
-2.35575
3.36509
0.928835
5.57589
3.50121
-5.66191
-1.28031
-7.61527
7.45034
-7.88515
7.70426
-0.469295
5.83201
-5.36272
4.37489
-1.54727
7.37928
5.73434
5.9416
5.86999
-5.59621
1.12797
-6.49068
-6.38918
-2.69751
2.82877
2.64644
-2.46253
5.86874
1.56358
5.73197
-5.42531
-2.09372
-5.51207
3.80167
2.02552
3.86435
4.01056
2.39771
4.03477
3.03771
-3.03288
-0.00482298
-3.06849
6.1062
0.725065
-5.42424
-4.49541
6.6842
3.35949
6.69835
-6.45326
-3.54526
-6.47187
-6.75149
-4.33624
-7.03822
6.94705
3.9319
6.82891
-8.08382
8.03999
6.78969
3.36252
6.71767
-6.71276
-3.50566
-6.7592
10.5354
-2.68937
-7.84598
-6.98465
-5.44753
6.97573
3.84109
7.56568
4.90784
7.60852
3.58036
6.95499
-7.42146
1.97393
-3.83483
-1.90608
-3.81372
3.72819
2.03732
3.77183
-4.13259
-2.47335
-4.1585
-4.20001
-2.58208
4.24727
2.32617
-4.32428
-3.56086
4.41878
2.30444
3.02042
-7.40834
3.6298
-6.97822
-6.32847
-2.65946
-6.25125
4.10886
2.61755
-6.72641
-2.57626
10.9398
-5.23812
9.32279
-7.32238
-4.45511
-7.3495
-5.9657
-2.94774
-6.08398
-6.78695
6.37766
-6.54324
6.09775
13.59
-4.93587
-8.65415
-3.95556
-2.40885
3.89153
-0.457639
-3.72151
3.71669
0.0435051
3.8199
4.74137
4.28373
-3.86795
-1.99202
-3.84874
3.86122
1.99194
3.86065
6.23376
2.49079
6.22736
-6.28992
-2.44384
-6.34987
8.92558
-8.53312
2.93253
-2.91991
5.1383
2.56597
-4.94085
-2.67442
5.98079
-3.02319
-2.9576
-12.2405
10.6616
1.57891
-4.8612
-0.486306
0.0732825
-5.53257
-3.78899
5.41121
0.530381
11.192
7.40296
-5.51495
5.76086
6.1617
6.22453
-0.164653
5.77558
-5.08857
5.14564
-2.23495
-2.91068
5.22566
-5.37047
-1.12421
-5.29693
4.17272
0.361496
1.90927
-1.59412
-2.15577
-0.541739
-2.08246
1.60142
1.04503
1.8305
1.01296
1.81581
-2.88722
0.511789
2.37543
-1.87425
-1.95074
-3.61653
-0.864703
4.48124
5.42083
2.02951
-5.32683
-0.185237
2.80031
-2.75904
-0.88142
-2.73511
1.91389
-2.79531
-3.37313
-1.84522
5.21835
-3.36259
-0.486155
3.30358
0.560767
-3.74151
-2.12819
3.7459
0.288875
-3.09912
6.18315
-3.08403
-5.09114
2.5277
3.5785
4.55321
-4.85098
2.47055
2.38043
-1.27248
5.83824
0.86011
5.83433
-8.65835
5.11309
6.66943
2.06837
-6.47314
0.0012774
-8.65707
10.1267
-8.14677
-1.97988
5.75013
4.37652
5.98296
7.60705
-4.96075
10.9437
0.316743
-8.46351
8.34033
-6.27196
4.05924
-10.3312
-11.6663
3.20278
-7.31755
8.69218
-1.37463
-2.36767
-5.71614
9.68522
-1.05264
-8.63258
5.77627
-5.4165
-5.34001
10.7565
-8.10587
8.84567
-2.67499
-6.17068
-6.77602
-4.08646
6.84781
1.19218
-9.94888
11.9228
-2.99389
5.92294
0.79473
5.86069
3.98096
-6.02904
2.04808
4.12491
-6.79989
2.77079
-8.79983
-4.8893
9.54812
-4.65882
-7.54876
-6.75761
-0.791152
2.03423
9.88858
-6.94207
5.34402
1.59805
3.32829
0.532356
-3.34428
-0.469439
0.342669
4.44085
-4.78352
4.1145
4.21068
3.33826
1.10259
3.82086
2.02954
-3.79824
-0.360257
-4.02011
1.43803
-1.69394
-3.48509
4.92311
-3.92313
0.438039
-2.63375
-3.45817
6.09192
-4.53983
3.06679
3.11636
5.05873
-4.81564
1.35747
-2.38752
-2.42812
2.56566
-4.2596
1.84607
3.07704
4.15051
0.589647
4.84844
4.69967
-7.46599
0.487774
8.20088
-6.92057
1.6943
5.91422
-7.03833
0.280717
-5.97053
1.10429
-6.34241
-5.62212
3.56514
-6.51288
-6.76607
5.47823
0.749127
-5.52555
-0.55843
-4.63621
-2.15074
-5.19398
-2.14994
-4.3933
-7.11069
-1.50934
-5.60135
4.86831
-4.70371
-2.33451
5.0561
1.04165
-7.61142
7.4291
-7.1858
6.65749
0.0616422
3.65505
4.34537
1.93652
-2.38257
4.31908
-4.30973
6.80052
-8.64353
4.3338
4.15323
-6.59707
-4.4903
4.93308
3.9925
5.2478
9.73544
-10.3658
0.630363
-11.5771
12.7203
-1.14324
-17.6431
6.06605
-7.9077
2.65503
0.2775
2.68801
0.649922
2.32713
-2.97706
-2.26999
-2.30981
-2.21016
-3.24756
5.45771
1.14491
-3.22727
2.08236
-3.42495
4.56986
0.0124591
-3.23973
5.09747
-2.77033
5.37497
-3.41249
1.96248
3.21045
5.44988
-2.23943
4.16893
-1.60296
1.75304
-3.99247
-1.49451
-2.95164
4.98896
-3.14027
3.57831
-0.205447
3.78376
-3.97432
0.951139
-0.636066
3.57461
3.70894
4.13581
-3.03323
2.81426
-4.41722
-1.17821
-3.82757
-0.750533
-0.138088
-4.12082
4.2589
6.36848
-6.50657
-5.24476
9.41144
-4.16668
7.62299
-5.41904
-2.20395
-4.20806
-4.32506
3.82874
1.94684
9.56982
0.166591
-5.58563
-4.92198
-3.95074
3.16653
1.97911
-2.14483
3.72374
2.07155
-0.162275
0.634991
1.19551
1.88794
-1.25295
0.172586
1.71535
-1.42154
2.08836
0.711948
-2.13218
0.0497197
-1.38985
3.30374
0.985574
-2.0306
0.777654
1.08033
-3.31528
4.70057
-2.36159
-2.33898
5.7809
1.15876
-3.52035
4.13817
-3.77667
2.33452
-3.19922
-1.18583
-4.9625
-3.39892
-2.43813
4.5205
-3.01958
5.04909
1.14737
-4.86385
6.01122
-3.41058
1.56537
-3.08168
3.79362
-1.15927
-1.9224
2.60753
2.61082
-2.80493
0.0698209
-0.197404
2.17381
-2.37122
-0.6215
-2.49575
-4.5788
4.86767
-2.138
4.60855
2.18108
-1.91712
6.52567
1.84994
-3.76705
-3.2412
-3.72736
-1.38662
3.16659
-0.968987
-5.79021
-7.13967
5.78727
0.0470564
-8.79369
10.2616
-1.46791
-5.4342
0.32111
5.42902
-7.60026
0.800364
-4.82946
5.43214
6.29225
6.3393
-8.83225
0.199667
-4.90035
1.63717
-6.53752
6.01369
-3.93796
7.14075
-8.0474
5.71289
-7.00575
5.16087
-1.37666
5.6277
-3.57962
2.21828
-6.30474
-5.11256
6.99263
-3.63012
7.78736
-4.1325
11.9199
-7.12639
6.96235
4.95751
-1.41604
-5.93346
-6.84151
5.42547
0.120842
5.98153
4.89285
-2.8633
4.53259
2.20036
-4.58788
-2.05924
-6.43418
1.8463
-3.31782
-1.86792
3.71422
3.1908
3.72316
1.28611
-3.25372
6.6879
-7.47905
-2.02908
-3.59303
6.75033
-1.32487
4.04719
-7.64022
-2.29523
7.90807
-3.14377
-4.7643
-2.97221
-3.79386
2.82535
-6.61921
3.68752
-4.24595
2.24657
-10.1543
-5.36485
-5.1213
-2.17365
-5.01215
-8.05941
5.88576
-1.99336
5.43574
-9.43434
6.29057
-3.28599
9.17175
-4.58602
-0.607963
5.10561
1.55188
10.7236
0.25491
-4.74521
-1.77787
3.96232
-2.18445
1.38867
-3.86591
0.0964102
2.36378
3.41712
-6.53649
-0.060576
-4.80579
-3.90714
7.89964
5.5043
11.8728
1.50699
9.10238
-1.20274
10.6094
4.04506
4.33299
-4.39131
5.02167
-0.132401
4.2014
-0.827237
2.78971
1.86078
1.89173
0.86731
2.25251
1.45644
3.20365
0.226591
-2.08322
4.67554
-8.62628
-0.910087
-8.02179
1.21875
5.83598
-4.61722
3.11061
-1.1315
0.926157
0.237308
-1.78807
1.55077
-2.67338
-1.95035
-0.234995
-1.47022
2.24787
1.83352
-2.01288
-0.660498
0.273363
-3.67228
2.92586
-2.85604
-0.245218
5.766
-2.59116
0.219945
-1.0258
-2.27581
-2.81755
2.76783
6.20363
0.322038
3.1196
5.18971
3.06152
0.198218
4.8098
-6.18444
-3.99003
-5.98477
0.028919
5.45794
2.06877
7.81982
7.02628
5.70141
-1.93882
-9.41787
8.47854
-3.45687
7.33529
-2.57099
-4.04822
3.74451
3.05601
-4.49363
0.247682
-3.80054
-7.25741
-1.6907
7.98127
-9.03293
8.42496
6.27422
-0.672876
-4.46672
-0.654589
4.13349
0.199495
10.8089
-1.21067
-6.92874
8.13941
-4.6253
3.71522
0.882785
2.84095
2.43355
1.30205
-5.62669
-10.2439
-1.78233
-1.53296
-4.1213
0.359932
-2.19346
6.25236
-2.53715
4.04841
5.60227
6.52842
-2.3057
-4.20087
6.47238
-2.42396
4.10446
)
;

boundaryField
{
    wall-4
    {
        type            calculated;
        value           uniform 0;
    }
    velocity-inlet-5
    {
        type            calculated;
        value           uniform -3.75095;
    }
    velocity-inlet-6
    {
        type            calculated;
        value           uniform -5.62643;
    }
    pressure-outlet-7
    {
        type            calculated;
        value           nonuniform List<scalar> 8(6.27314 6.14973 6.61447 6.74606 6.64151 6.75052 6.66706 6.67085);
    }
    wall-8
    {
        type            calculated;
        value           uniform 0;
    }
    frontAndBackPlanes
    {
        type            empty;
        value           nonuniform 0();
    }
}


// ************************************************************************* //
