/*--------------------------------*- C++ -*----------------------------------*\
| =========                 |                                                 |
| \\      /  F ield         | OpenFOAM: The Open Source CFD Toolbox           |
|  \\    /   O peration     | Version:  4.0                                   |
|   \\  /    A nd           | Web:      www.OpenFOAM.org                      |
|    \\/     M anipulation  |                                                 |
\*---------------------------------------------------------------------------*/
FoamFile
{
    version     2.0;
    format      ascii;
    class       volVectorField;
    location    "11";
    object      U;
}
// * * * * * * * * * * * * * * * * * * * * * * * * * * * * * * * * * * * * * //

dimensions      [0 1 -1 0 0 0 0];

internalField   nonuniform List<vector> 
918
(
(0.985186 -0.000699381 0)
(0.00500822 2.96625 0)
(-0.00516668 1.66492 0)
(0.979672 0.0022411 0)
(-6.14521e-05 1.63767 1.00483e-21)
(-0.00703063 2.9488 -1.90966e-18)
(0.854626 1.16164 7.3677e-19)
(0.514805 0.254094 -8.92403e-21)
(0.999878 -0.000363891 0)
(0.0468134 1.42951 0)
(-0.00949335 1.46333 0)
(0.853696 -0.00381824 0)
(0.0110211 2.93045 0)
(0.00129539 2.79399 0)
(-0.0213849 3.17488 1.08734e-18)
(-0.00156749 1.55336 -1.73356e-20)
(0.614501 0.114297 5.5081e-19)
(0.225615 1.4885 5.25711e-19)
(0.966682 0.00778842 0)
(0.00279955 1.54374 0)
(0.188154 0.292164 -4.97585e-19)
(1.00143 -0.00510373 0)
(0.999898 -0.0101822 0)
(0.975378 -0.00635045 0)
(0.769714 -0.0269164 0)
(0.0203284 2.6251 0)
(-0.0152463 2.91022 6.63707e-19)
(-0.00873918 1.68798 0)
(-0.0102041 1.76628 0)
(-0.00825123 1.68606 0)
(0.00506246 1.79857 0)
(0.00289197 1.65205 -7.95638e-22)
(-8.29387e-05 1.56659 0)
(-0.0206329 2.98758 -6.69476e-23)
(-0.0167034 3.0053 1.48442e-18)
(0.00209555 3.0002 0)
(0.892241 -0.00212186 0)
(0.382177 0.922748 5.25921e-21)
(0.839337 1.18983 -1.05751e-18)
(0.97899 1.03906 9.81786e-19)
(0.694095 1.2827 -1.68612e-19)
(0.704949 1.26585 9.5181e-19)
(0.553712 0.315764 8.70695e-21)
(0.546193 0.220079 0)
(1.19652 0.571055 0)
(0.50489 0.334561 4.03535e-20)
(0.47129 0.245535 -4.18722e-20)
(0.913083 -0.00677945 0)
(1.00013 0.000152759 0)
(0.999954 0.00022495 0)
(1.00475 -0.00803849 0)
(1.00049 -0.000468922 0)
(1.00014 2.32584e-05 0)
(0.0336974 1.58127 -5.96047e-19)
(0.0223025 1.56336 0)
(0.0666564 1.44875 0)
(0.0104632 1.57501 0)
(0.0277654 1.41491 0)
(-0.000338341 1.60257 0)
(-0.0158675 1.57789 0)
(-0.00818084 1.44534 0)
(-0.0159739 1.60786 0)
(-0.0112828 1.48713 0)
(0.921694 0.00173592 0)
(0.916983 0.00409826 0)
(0.862163 -0.00116951 0)
(0.912879 0.00846562 0)
(0.838606 0.00189539 0)
(0.0146943 3.0004 6.99837e-19)
(0.0115073 3.00788 0)
(0.006133 3.00281 0)
(0.0135429 2.9973 7.81324e-24)
(0.00798464 2.9585 -1.04013e-18)
(0.0145421 2.98219 0)
(0.0108439 2.90364 0)
(0.0255007 2.92995 1.41492e-24)
(0.00384529 2.82455 0)
(0.0320766 2.91489 0)
(-0.00710886 2.74326 0)
(0.302374 3.56328 0)
(-0.13279 3.64569 0)
(0.134164 3.26345 -1.01194e-18)
(-0.0101477 2.99877 0)
(0.0093011 1.7707 0)
(-0.00282002 1.65554 1.71021e-20)
(-0.00173793 1.56161 -2.77056e-20)
(0.67499 0.163511 -1.89006e-19)
(0.635407 0.0719311 -1.83094e-19)
(0.644225 0.197392 -5.6852e-19)
(0.601539 0.13419 -3.81589e-19)
(0.258835 1.21383 0)
(0.197316 1.50118 -5.64285e-19)
(0.377021 1.39953 9.46549e-19)
(0.987977 0.0116652 0)
(0.942427 0.0106432 0)
(1.00038 0.000646965 0)
(1.00257 0.00955582 0)
(1.0023 0.00890128 -1.02138e-18)
(0.991874 0.00927132 7.79919e-19)
(-0.00195791 1.64245 0)
(0.00118992 1.54687 0)
(-0.0114235 1.69847 0)
(-0.00679728 1.65787 0)
(0.00116035 1.55311 0)
(0.27794 0.302056 1.51669e-19)
(0.321017 0.272871 0)
(0.992899 -0.00822737 0)
(0.95601 -0.00522557 0)
(0.885547 0.0248379 0)
(0.850706 0.025088 0)
(0.810299 -0.00269911 0)
(1.03527 0.000291761 0)
(0.806366 0.027356 0)
(0.703938 -0.0169152 7.42877e-19)
(-0.0341194 2.86852 3.42026e-19)
(0.0447494 2.90681 0)
(0.0585975 2.88165 0)
(-0.00542131 2.69402 0)
(-0.0131155 2.9854 6.11053e-19)
(-0.0186632 2.89575 0)
(-0.0153225 2.98819 -1.93073e-18)
(-0.0135803 2.92532 6.66086e-19)
(-0.00526214 1.80494 0)
(-0.00184851 1.79974 0)
(0.000301422 1.66014 -3.8048e-22)
(0.000822719 1.65028 0)
(-0.000290878 1.55386 0)
(0.94775 0.00227849 0)
(0.894003 0.00348298 0)
(0.87035 -0.00429344 0)
(0.945539 -0.00228995 0)
(0.888544 -0.00247526 0)
(0.502092 1.10462 -1.68958e-20)
(0.546972 1.15562 0)
(0.338397 0.863266 1.0351e-20)
(0.27292 0.740538 0)
(0.9507 1.07573 -2.84238e-19)
(1.07573 0.891288 5.88118e-19)
(0.346578 1.4249 0)
(0.533275 1.35892 0)
(0.558257 1.31663 0)
(0.0774315 0.0022615 -9.7501e-20)
(0.584261 0.291181 0)
(0.576411 0.205146 1.10775e-19)
(1.04564 0.939227 0)
(1.11619 0.786217 0)
(1.14192 0.735785 -5.09961e-19)
(1.17892 0.627203 0)
(1.23326 0.416575 6.24847e-20)
(0.948249 -0.000419713 0)
(0.952863 -0.00617483 0)
(0.898844 -0.00274903 0)
(0.985683 -0.00903817 0)
(0.971524 -0.00783105 0)
(0.937872 -0.00568474 0)
(1.00019 0.00230537 0)
(1.00085 0.00148754 0)
(0.999896 0.000774734 0)
(0.0216019 1.66058 3.26129e-19)
(0.0617175 1.54929 0)
(0.00421897 1.69227 5.19287e-19)
(0.0136432 1.58493 -4.4234e-19)
(0.0581707 1.52749 -4.39147e-19)
(0.012031 1.56442 0)
(0.0957674 1.47382 0)
(0.00389727 1.57691 0)
(0.0216166 1.40906 0)
(-0.000864932 1.68224 -1.2665e-21)
(0.00800242 1.59925 0)
(-0.00674349 1.69041 -6.48111e-20)
(-0.00678332 1.5981 1.23262e-19)
(0.00183129 1.57426 0)
(-0.0128987 1.57046 0)
(0.00553375 1.42273 0)
(-0.0153085 1.62718 0)
(-0.00880366 1.5069 0)
(0.984025 0.0130397 0)
(0.938502 0.00411476 0)
(0.96874 0.00632709 0)
(0.913827 0.00213026 0)
(0.870239 -0.003887 0)
(0.936588 0.00407529 0)
(0.929025 0.00660504 0)
(0.866166 0.00364749 0)
(0.00609877 3.06485 -6.18238e-21)
(0.0164782 3.05797 0)
(0.0149295 2.96913 0)
(0.00873278 2.87614 0)
(0.913064 3.97152 0)
(1.22576 3.29419 1.00128e-18)
(0.0718045 3.09195 0)
(-0.0245848 2.91588 0)
(-0.00263027 1.79461 0)
(0.00359306 1.77421 0)
(0.00432299 1.77734 0)
(0.0028424 1.78508 3.56001e-21)
(0.00706711 1.77245 0)
(0.00834753 1.77824 0)
(-0.00138144 1.5705 4.48093e-21)
(-0.00232413 1.67489 3.60858e-20)
(-0.0027411 1.66665 2.83138e-20)
(-0.00244463 1.5649 0)
(0.696872 0.130078 2.77709e-19)
(0.664439 0.0539274 -2.69067e-19)
(0.225941 1.33223 0)
(0.310175 1.03262 -2.7351e-19)
(0.155634 1.44237 -8.13801e-19)
(0.186078 1.34966 8.13249e-19)
(0.893961 0.00941892 0)
(0.964063 0.0136291 0)
(0.975329 0.0140285 0)
(0.920797 0.0124098 0)
(-0.0120591 1.63846 0)
(-0.00480054 1.64422 0)
(-0.00331697 1.52847 0)
(0.458484 0.350882 3.6991e-19)
(0.386193 0.331932 -4.56255e-19)
(0.394563 0.247777 0)
(1.15489 0.0846123 -4.43296e-21)
(1.14094 0.0381186 0)
(1.06754 0.0361333 0)
(0.983042 0.00205577 0)
(0.727682 0.098813 0)
(0.756997 0.0532036 -1.19225e-18)
(0.690658 0.0220832 4.56788e-19)
(0.0104855 2.98354 4.35443e-19)
(-0.0312777 2.86953 5.03297e-20)
(0.00397821 3.05026 -1.33274e-20)
(0.0199064 3.04352 4.79389e-19)
(-0.0150977 2.9966 2.21167e-20)
(-0.0129382 2.94939 -8.96024e-23)
(-0.0172522 3.01201 -4.18964e-19)
(0.0146726 3.02423 3.02522e-19)
(0.00719898 3.0366 -4.73021e-19)
(0.965005 0.00563862 0)
(0.958281 0.00585228 0)
(0.902189 0.00517784 0)
(0.950286 0.0118903 0)
(0.938193 0.00520489 0)
(0.87414 0.0062487 0)
(0.939039 -0.00269235 0)
(0.931182 -0.00284798 0)
(0.872633 -0.00856379 0)
(0.70009 1.38003 2.87803e-19)
(0.73364 1.49165 0)
(0.174443 0.252475 5.74882e-21)
(0.0972826 0.519107 1.70162e-19)
(0.20651 0.675424 -1.35724e-19)
(0.208743 0.56085 2.81399e-19)
(0.396514 0.624912 6.68523e-19)
(0.140436 0.146233 2.68106e-19)
(0.632678 0.226871 4.14134e-19)
(0.61166 0.260604 1.01366e-19)
(0.589395 0.169125 2.12711e-19)
(1.22236 0.468129 3.01968e-19)
(1.2423 0.263097 3.17777e-19)
(-0.00634829 1.69254 2.06368e-19)
(0.00366638 1.58412 0)
(1.02235 0.0219269 0)
(0.998317 0.0117887 0)
(0.956317 -0.00326482 0)
(0.0108557 3.07457 0)
(0.0201949 2.94387 8.26889e-19)
(0.0167272 2.95624 0)
(0.00614237 2.85035 -8.20132e-19)
(0.00591389 3.09201 1.96453e-19)
(0.00721756 3.08254 0)
(0.76542 1.79771 -2.28048e-19)
(1.23078 2.48613 6.18277e-19)
(0.747942 1.94129 -1.45163e-18)
(0.0217575 2.98724 -3.17344e-19)
(0.0382753 3.01286 0)
(-0.030401 2.88556 0)
(-0.0087417 1.67428 -8.06707e-21)
(-0.00344016 1.67663 -8.52832e-20)
(-0.00307883 1.58211 -6.16173e-21)
(0.279307 1.22475 8.47323e-19)
(0.32997 0.882355 -5.69342e-19)
(0.0380091 1.62036 5.47997e-19)
(0.0796523 1.55056 -6.6383e-19)
(0.105119 1.46223 7.77024e-20)
(0.0061995 3.11816 -1.03847e-18)
(0.0141392 3.11872 1.12578e-18)
(-0.00846564 2.98073 5.33785e-19)
(-0.00266491 2.9781 -4.73381e-19)
(-0.0215997 2.8826 -5.43646e-19)
(0.00875163 3.09857 -1.43987e-18)
(0.00194823 3.10607 1.43251e-18)
(0.317883 0.482255 0)
(0.106207 0.470397 1.0174e-19)
(0.0846056 0.00653704 -3.01948e-20)
(0.437662 0.79419 7.88091e-19)
(0.263084 0.364328 -1.19745e-18)
(1.23647 0.172098 -5.88125e-20)
(1.23977 0.314001 0)
(1.22518 0.121736 1.2561e-19)
(0.00223267 1.68113 -1.66572e-21)
(-0.00502612 1.68006 0)
(0.00421798 1.58239 0)
(0.310533 1.07389 -3.03251e-19)
(0.346723 0.954738 -6.28196e-19)
(0.304813 0.660512 1.09212e-18)
(1.00535 -0.00900675 0)
(1.00715 -0.0073545 1.87294e-19)
(-0.0044804 1.80089 0)
(-0.00927758 1.80642 0)
(1.00259 0.00353467 1.72933e-21)
(1.00193 0.00863936 3.82981e-19)
(0.00353248 1.78688 -4.57195e-21)
(0.00259599 1.78755 0)
(0.0428676 3.18859 1.13347e-19)
(0.395119 3.51161 0)
(1.10283 0.639623 6.8706e-20)
(1.01351 0.0131312 -2.73298e-21)
(1.01029 -0.0204511 0)
(1.00155 0.000302657 2.70006e-22)
(-0.0104025 1.74101 0)
(0.038611 1.84041 0)
(-0.0217654 1.78616 0)
(0.0126585 1.80405 9.11895e-20)
(-0.0081456 1.80247 4.20473e-20)
(1.00233 0.0115348 2.29395e-21)
(1.04455 0.014854 0)
(1.07473 0.0253571 0)
(-0.00259642 1.77909 0)
(-0.00605044 1.79462 0)
(-0.00608599 1.79645 0)
(0.0342553 1.52928 -4.10102e-19)
(1.01189 -0.00944155 0)
(1.00991 -0.0168006 0)
(1.00375 0.000468651 2.38046e-19)
(1.00534 -0.00508311 -2.85619e-19)
(1.00147 -0.00220378 0)
(-0.00764414 1.78506 0)
(-0.00215437 1.79713 0)
(-0.00382018 1.79202 0)
(-0.00525244 1.79812 0)
(-0.00536429 1.79518 0)
(-0.00601157 1.79767 0)
(1.0248 0.0113461 0)
(1.02211 -0.000487349 -9.06957e-22)
(0.761379 1.21993 5.37174e-19)
(1.00199 0.0010765 -2.38236e-19)
(1.0039 0.00523016 2.82195e-19)
(1.00126 0.00203796 0)
(1.01097 0.0107097 2.32301e-19)
(1.00753 0.0114527 -2.87111e-19)
(1.00369 0.0149029 0)
(-0.00304962 1.79468 0)
(0.00210626 1.78932 1.52328e-20)
(0.00184445 1.78979 -1.10987e-20)
(1.17417 0.259046 -7.91346e-20)
(1.11064 0.0813699 0)
(0.0635997 3.07921 -5.39075e-19)
(0.0716649 2.84975 -4.37311e-20)
(0.154434 3.20308 8.04703e-19)
(0.145503 3.2314 -2.8028e-21)
(0.146586 3.25595 0)
(0.0231481 3.13935 1.16462e-19)
(0.0849334 3.16498 5.26794e-19)
(0.0778662 3.1935 -2.25371e-19)
(0.0284883 3.12747 0)
(0.705386 0.346015 0)
(0.607891 0.39925 0)
(1.08012 0.67221 -2.61655e-19)
(1.06803 0.811691 4.0398e-19)
(1.12684 0.551948 0)
(1.1651 0.50785 0)
(1.01511 0.0128121 -4.3843e-19)
(1.01085 0.0188979 5.45562e-19)
(1.00886 -0.0181224 0)
(1.00841 -0.0136603 0)
(1.00689 0.000794796 0)
(1.01234 0.00365281 0)
(1.00483 0.00258604 0)
(1.01361 0.00769256 0)
(1.00649 0.00536366 0)
(1.00531 0.00382657 0)
(-0.00878553 1.7489 0)
(-0.00581074 1.76331 0)
(-0.0275685 1.73226 0)
(-0.0267519 1.70497 0)
(0.0328218 1.84732 0)
(0.0650996 1.84533 -3.47962e-19)
(0.0114928 1.84555 0)
(0.00405358 1.83174 1.61374e-19)
(-0.00607132 1.81576 -1.71975e-19)
(-0.0234652 1.78717 0)
(-0.0217591 1.78785 0)
(-0.0193813 1.78707 0)
(-0.0115165 1.78498 0)
(-0.00594816 1.8024 -4.83776e-20)
(-0.00825283 1.80293 5.82125e-20)
(0.00330167 1.80929 7.70468e-20)
(-0.00432166 1.80406 0)
(-0.00704089 1.80509 -9.62395e-20)
(-0.00591329 1.80271 -5.50865e-20)
(-0.00469557 1.80298 4.01343e-20)
(-0.00960371 1.79989 -7.96024e-20)
(-0.00668294 1.80505 -9.44655e-20)
(1.00945 0.016571 4.1709e-19)
(1.00829 0.00407902 -5.28174e-19)
(1.00264 0.0198328 -4.39144e-19)
(0.987934 0.0165983 5.60145e-19)
(1.03805 0.0168654 0)
(1.04024 0.00905205 0)
(1.05997 0.0333877 0)
(1.04476 0.0159579 0)
(1.05987 0.011892 0)
(1.09796 0.0642105 0)
(1.07522 0.0449202 0)
(1.09676 0.0308497 0)
(0.00297334 1.77825 -1.59443e-21)
(-0.00367103 1.7733 0)
(5.28295e-05 1.77428 0)
(-0.00658552 1.79699 1.59402e-20)
(-0.00577914 1.7962 -7.89706e-22)
(-0.0116296 1.77793 1.59446e-20)
(-0.00808289 1.78502 -1.63091e-20)
(-0.00829744 1.79439 0)
(-0.00695122 1.79546 0)
(-0.00752137 1.79583 0)
(-0.00874644 1.79575 0)
(-0.00892506 1.79712 0)
(0.123384 1.43367 8.09231e-19)
(0.272107 1.37902 3.29392e-19)
(0.413527 1.86423 -2.03626e-19)
(0.255382 1.79502 5.40082e-19)
(-0.0707973 2.28294 9.91259e-20)
(1.01185 -0.0225675 0)
(1.01444 -0.018416 0)
(1.00974 -0.0260826 0)
(1.00944 -0.00233959 0)
(1.0063 -0.00336291 0)
(1.00567 -0.0047925 0)
(1.00926 -0.00658909 0)
(1.01093 -0.0127963 0)
(1.0239 0.000815963 4.14242e-19)
(1.01982 0.00413158 -5.27859e-19)
(1.02268 0.00118527 -4.05502e-19)
(1.01907 0.00284913 4.985e-19)
(0.756441 1.23028 0)
(0.623055 1.28053 6.53554e-19)
(0.850932 1.16246 3.85683e-19)
(0.894166 1.1077 -5.1344e-19)
(1.14355 2.56416 -3.86861e-19)
(0.820278 0.119546 2.82165e-19)
(1.11186 0.0897791 0)
(1.15717 0.174076 7.08266e-20)
(1.14517 0.152013 3.26299e-21)
(0.96316 0.136901 0)
(0.17195 2.97812 8.11705e-20)
(0.137042 2.87947 -6.77334e-19)
(0.0528708 2.33398 5.02141e-19)
(0.124627 0.164687 -2.04151e-19)
(0.33659 3.43778 -4.5522e-19)
(0.200023 3.33313 0)
(0.239472 3.38273 5.92856e-19)
(0.257568 3.05853 -6.22715e-19)
(0.359956 3.21568 0)
(0.00754891 3.12031 2.75733e-20)
(0.0195276 3.12937 -3.51757e-19)
(0.0168829 3.12502 5.17754e-19)
(0.0399784 3.14024 0)
(0.038748 3.15295 0)
(1.18012 2.58298 0)
(0.508738 0.827499 -2.1432e-19)
(1.0097 0.980519 -2.1227e-19)
(0.961294 1.03283 0)
(0.834508 0.920276 6.16548e-20)
(1.037 0.857209 3.31616e-20)
(0.408406 0.494111 -5.34545e-19)
(0.733725 0.339575 -2.39895e-20)
(0.740557 0.290327 2.18166e-19)
(0.606661 0.438711 1.74131e-20)
(0.564014 0.431041 -7.15666e-19)
(0.701513 0.372028 0)
(0.677685 0.42973 3.6012e-19)
(0.690085 0.42988 0)
(0.651447 0.412828 0)
(0.668135 0.360439 0)
(0.732087 0.608772 1.25135e-19)
(1.16014 0.264924 4.31948e-20)
(1.15921 0.393788 0)
(1.18451 0.364744 0)
(0.787508 0.221954 3.23734e-19)
(0.785959 0.539095 -1.78888e-19)
(0.685882 0.50622 2.90019e-19)
(0.873211 0.407017 -2.73854e-19)
(1.01826 0.00849131 2.84329e-19)
(1.01485 0.0176144 -2.93785e-19)
(1.01382 0.0184054 0)
(1.01983 0.0124748 0)
(1.01033 0.000696183 -2.60532e-19)
(1.01046 0.00537713 2.60218e-19)
(1.027 0.00370313 0)
(1.02651 -0.000135573 0)
(1.01444 0.00724471 0)
(1.01802 0.0133897 0)
(1.02917 0.0022402 0)
(1.02339 0.00231761 0)
(-0.00951561 1.77317 0)
(-0.00646335 1.77512 0)
(-0.0545955 1.74977 6.41313e-20)
(0.00482909 1.58089 1.71837e-19)
(-0.0334873 1.69041 3.46719e-19)
(-0.0189667 1.62698 -5.62742e-19)
(-0.0890178 1.73686 0)
(-0.0718447 1.8506 -1.0051e-19)
(-0.0467983 1.84536 0)
(-0.0262054 2.23744 -1.3803e-19)
(0.0845598 2.08261 5.07642e-19)
(-0.107599 1.8719 9.04324e-20)
(-0.122713 1.64853 1.03596e-19)
(-0.114962 1.71374 -8.278e-20)
(-0.17977 1.65565 2.15305e-19)
(-0.105933 1.94357 0)
(-0.117918 1.9819 -1.03969e-19)
(-0.0176462 1.81039 -4.47972e-20)
(-0.0131882 1.81741 0)
(-0.0160742 1.80453 1.88463e-19)
(-0.0190543 1.80741 0)
(-0.00399286 1.82828 -1.78168e-19)
(-0.00663431 1.82346 0)
(-0.0122276 1.79384 -3.757e-20)
(-0.00293039 1.79964 0)
(-0.00630572 1.79754 0)
(-0.0129763 1.79308 4.20479e-20)
(0.00624734 1.80833 9.27383e-22)
(-0.000602593 1.81618 2.08915e-19)
(0.0105857 1.81084 1.35493e-21)
(-0.0129274 1.79125 3.2285e-20)
(-0.01257 1.79272 1.96605e-20)
(-0.0205719 1.79098 0)
(-0.017123 1.79287 0)
(-0.00647746 1.80088 1.07462e-19)
(-0.0022198 1.79578 6.81432e-20)
(-0.00273451 1.79783 -9.62208e-20)
(-0.0126279 1.80576 0)
(-0.0102277 1.78662 -5.98399e-20)
(-0.0094898 1.79529 2.58548e-20)
(-0.00989736 1.79489 -7.97649e-21)
(-0.0114464 1.79114 -4.01216e-20)
(-0.00650652 1.79895 -1.36692e-20)
(-0.00738705 1.80173 6.4986e-20)
(1.01843 0.00514945 -2.698e-19)
(1.0135 0.00961205 2.81252e-19)
(1.01217 0.00472605 0)
(0.993974 0.0471815 3.91784e-19)
(0.986628 0.033329 -4.70169e-19)
(0.96228 0.0295847 5.39873e-19)
(0.99497 0.088713 -5.22682e-20)
(1.02585 0.00966515 0)
(1.03157 0.00990757 2.34213e-19)
(1.03199 0.00608963 -2.32374e-19)
(1.03321 0.0405572 -1.29237e-20)
(1.02939 0.0254935 1.14304e-19)
(1.01706 0.0432347 0)
(1.0094 0.0386348 -4.25723e-20)
(1.00974 0.0240887 0)
(1.01486 0.0173032 0)
(1.025 0.00589095 0)
(1.02085 0.00295579 0)
(1.01454 0.0240569 8.83341e-20)
(1.02049 0.0150848 -1.99699e-19)
(1.01653 0.0341623 -9.0557e-20)
(1.01511 0.033143 -1.03977e-19)
(1.01324 0.0412811 1.82355e-19)
(1.04879 0.0405328 0)
(1.03765 0.0844991 0)
(-0.0105361 1.78636 -2.37866e-20)
(-0.00861235 1.77798 -1.92461e-21)
(-0.00870122 1.77982 0)
(-0.00385527 1.78973 2.37265e-20)
(-0.00390331 1.78529 3.33278e-21)
(-0.00209388 1.78838 -3.80895e-21)
(-0.00539371 1.80251 4.82948e-20)
(-0.00715351 1.79926 -2.93587e-21)
(-0.0066307 1.79822 1.40159e-20)
(-0.0049805 1.79966 -2.4901e-20)
(-0.00478515 1.80013 2.93325e-20)
(-0.0117819 1.78474 6.13085e-22)
(-0.0132293 1.77924 2.44433e-20)
(-0.0149353 1.37097 -4.13008e-19)
(-0.157222 1.68359 -4.18408e-19)
(0.614184 1.24788 -6.29674e-19)
(0.407457 1.28565 -3.16206e-19)
(0.509787 1.32764 0)
(0.431336 1.93722 2.15594e-19)
(0.604687 1.77124 3.08965e-19)
(0.29006 1.79425 8.11017e-20)
(0.263336 1.99522 -5.76715e-19)
(0.279326 2.11333 5.69208e-19)
(0.392625 1.84053 0)
(0.344344 1.78492 -4.79539e-19)
(0.100125 1.83457 9.1666e-19)
(0.199512 1.81294 -6.60542e-20)
(0.132037 1.8052 -1.22638e-18)
(0.904684 2.44684 -1.55091e-19)
(0.785263 2.21362 0)
(1.01229 -0.00778738 9.54276e-21)
(1.01286 -0.0157957 -7.82301e-21)
(1.01409 -0.0157574 -1.39461e-19)
(1.02739 -0.0154809 1.39606e-19)
(1.02609 -0.0102827 0)
(0.733737 1.11971 0)
(0.75602 1.09095 0)
(0.762011 1.06942 0)
(0.703111 1.12603 0)
(1.16168 2.59114 5.17857e-20)
(1.0516 2.31065 0)
(1.06464 2.27895 -2.57183e-21)
(0.76049 2.68482 0)
(1.0168 2.69277 2.09383e-19)
(1.04391 2.63119 -1.37438e-19)
(0.831446 0.157555 0)
(0.80199 0.162198 8.15304e-20)
(0.884245 0.124187 4.14683e-19)
(0.848219 0.108813 -1.65163e-19)
(0.851617 0.0679674 -5.02973e-19)
(1.01011 0.207569 -2.50333e-19)
(0.927958 0.253617 -1.77427e-20)
(0.898989 0.248788 3.71211e-19)
(0.957994 0.174607 2.7893e-19)
(0.912152 0.159088 -5.20291e-19)
(0.891496 0.162146 6.71258e-20)
(0.931844 0.211913 -1.30801e-19)
(0.903457 0.178988 0)
(0.969475 0.157956 2.50056e-19)
(0.998311 0.165306 0)
(0.990945 0.179766 0)
(1.04406 0.1006 7.97957e-20)
(1.0141 0.156367 -1.2478e-20)
(1.00595 0.21589 -4.37639e-20)
(1.04947 0.191827 0)
(1.00559 0.0257092 2.08577e-19)
(1.00641 0.0374862 2.50189e-19)
(1.00968 0.0309483 -2.06148e-19)
(1.00685 0.0424756 -1.67927e-19)
(0.99813 0.0513028 -2.78022e-19)
(0.958992 0.132504 0)
(0.989577 0.0899586 0)
(0.962187 0.0409365 -1.95104e-19)
(0.92177 0.0519003 8.1956e-20)
(1.0001 0.0811728 2.38706e-19)
(1.00786 0.0992079 -2.46058e-19)
(1.01921 0.138983 2.25222e-19)
(1.00711 0.126129 0)
(1.0179 0.080102 0)
(1.0077 0.065238 -1.014e-19)
(1.00882 0.0705317 -1.91487e-19)
(0.734906 1.22306 -3.75248e-20)
(0.669866 1.48111 4.57591e-20)
(1.10291 2.71794 9.5969e-22)
(1.1856 3.0817 -6.62814e-20)
(1.22542 2.68991 4.34494e-19)
(1.25172 2.68028 -2.96451e-19)
(1.18209 2.30868 -7.68128e-21)
(1.17304 2.97064 1.37034e-19)
(1.20103 2.92286 -1.01999e-19)
(1.18132 3.2366 -2.5623e-19)
(1.34691 2.95098 3.54507e-19)
(1.3377 2.87335 0)
(0.491632 0.842516 -1.3903e-20)
(0.186321 1.309 3.4803e-19)
(0.519855 0.544012 3.52011e-19)
(0.356433 0.333142 3.97344e-19)
(0.563747 0.451227 3.97855e-19)
(0.540828 0.503762 -6.2987e-19)
(0.540254 0.521797 5.16025e-19)
(0.520101 0.473867 -2.0981e-19)
(0.493781 0.426865 4.84906e-19)
(0.790032 0.254755 -1.79757e-19)
(0.761473 0.285936 0)
(0.765503 0.254873 1.25562e-20)
(0.670818 0.512026 1.85105e-19)
(0.656259 0.480201 -6.81798e-19)
(0.595468 0.500212 2.01986e-20)
(0.618834 0.467124 0)
(0.61518 0.730917 1.45372e-19)
(0.783683 0.756797 4.74365e-20)
(0.722659 0.81412 -6.45241e-20)
(0.825098 0.791423 -1.47212e-20)
(0.883333 0.824331 1.57978e-20)
(0.891387 0.834316 -1.61513e-20)
(0.774907 0.627342 -2.12713e-19)
(0.857148 0.711188 1.36814e-20)
(0.931296 0.703318 0)
(0.914627 0.66327 -1.38595e-20)
(0.954916 0.28984 5.92101e-20)
(1.06512 0.261205 7.1071e-21)
(0.997701 0.234674 1.02543e-19)
(0.931817 0.329575 -1.36012e-19)
(0.980092 0.408089 0)
(1.04203 0.389515 0)
(0.849382 0.337925 2.29493e-21)
(0.85171 0.275052 0)
(0.851405 0.247129 1.94159e-19)
(0.875684 0.255719 -3.55859e-21)
(0.866022 0.410651 7.49971e-19)
(0.829302 0.473527 1.87747e-19)
(0.82349 0.436528 -2.42885e-19)
(0.756387 0.433126 2.60801e-19)
(0.745353 0.432951 1.76899e-19)
(0.728714 0.423516 -1.7358e-19)
(1.02317 0.0104142 2.26792e-19)
(1.03185 0.000696463 0)
(1.03301 -0.00363093 1.49355e-19)
(1.02161 0.0015806 -3.38372e-19)
(1.03402 0.00360859 1.60254e-19)
(1.03126 0.00489536 -3.46981e-19)
(1.02843 0.00166776 0)
(1.02417 0.00403785 -7.20227e-20)
(1.02968 0.00484303 1.81217e-19)
(1.02072 0.011028 -9.1145e-20)
(1.02234 0.0103311 6.64058e-20)
(-0.00367129 1.78601 0)
(-0.00860741 1.79551 0)
(-0.001974 1.78059 0)
(-0.000275031 1.7815 0)
(-0.0307951 1.78219 -8.25584e-21)
(-0.030464 1.76521 5.91669e-23)
(-0.0517573 1.83195 -3.14929e-20)
(-0.0637051 1.77162 -5.43917e-20)
(-0.00679692 1.79906 -5.57815e-20)
(-0.0154625 1.79706 4.02496e-20)
(-0.0207064 1.78833 -1.11851e-20)
(-0.014485 1.79962 8.42639e-21)
(-0.00957862 1.79673 8.17732e-22)
(-0.00684029 1.79729 -4.74482e-21)
(-0.0135381 1.81119 -2.097e-19)
(-0.00403443 1.82531 0)
(-0.0139349 1.81657 1.18433e-19)
(-0.024879 1.82224 7.75457e-20)
(-0.0123412 1.9402 -8.31353e-20)
(0.0924334 1.89495 0)
(0.0819672 1.92595 -5.96705e-19)
(0.0946148 2.01075 4.06368e-19)
(0.00588655 1.88697 -2.3061e-19)
(-0.00521712 1.84401 1.29808e-19)
(0.00690216 1.85415 0)
(-0.00633682 1.80203 -1.35999e-19)
(-0.00350134 1.80337 -1.80642e-19)
(-0.00331163 1.80302 0)
(-0.00273837 1.81028 -5.36589e-21)
(-0.0123458 1.81064 7.10768e-20)
(-0.0213008 1.79012 5.19967e-21)
(-0.0225676 1.78982 -9.25151e-20)
(-0.0221131 1.78461 2.05981e-20)
(-0.0196186 1.78384 3.72364e-20)
(-0.0155187 1.79465 0)
(-0.0187546 1.7842 0)
(-0.0122498 1.79573 2.75952e-20)
(-0.0115869 1.78439 -8.98352e-21)
(-0.0178196 1.78426 0)
(-0.0169609 1.795 2.21279e-20)
(-0.0127561 1.79648 -4.1612e-20)
(1.02165 0.0151191 0)
(1.02381 0.0136087 -2.13968e-20)
(1.02006 0.0147774 -1.59282e-19)
(1.02068 0.019397 0)
(1.02124 0.021424 0)
(1.02357 0.00742786 -4.8555e-21)
(1.02392 0.00787077 2.665e-19)
(1.02082 0.00806125 3.23996e-19)
(1.02024 0.00660729 0)
(1.01795 0.00712311 0)
(1.0192 0.0131034 1.62545e-19)
(1.01759 0.0112203 0)
(1.0187 0.0109913 0)
(-0.0121563 1.78712 0)
(-0.013113 1.77779 2.34375e-21)
(-0.0135176 1.77952 1.34637e-20)
(-0.0115647 1.78399 0)
(-0.012813 1.78019 1.8387e-20)
(-0.0108658 1.78368 -8.68377e-21)
(-0.00912306 1.78401 0)
(0.170753 2.42989 0)
(-0.233597 1.78919 8.82209e-19)
(-0.108091 2.19516 0)
(0.0641425 1.37184 -1.26309e-18)
(0.288531 1.07702 0)
(0.126764 1.28833 5.79114e-19)
(1.082 2.81803 4.36446e-21)
(0.942685 2.54901 1.91934e-19)
(0.834592 2.2582 -1.43995e-19)
(0.805191 2.31618 1.45037e-19)
(0.892716 2.66931 0)
(0.959479 2.6089 0)
(0.863632 2.41298 0)
(0.900465 2.27598 -4.48881e-19)
(0.381792 2.70073 1.48002e-20)
(0.714554 2.73531 1.42145e-20)
(0.738088 2.67703 -1.05659e-20)
(0.56289 2.03132 0)
(0.72467 2.18933 0)
(0.697057 1.98721 -2.87322e-19)
(0.55801 2.61446 0)
(0.651029 1.10619 0)
(0.458003 0.928102 -6.34782e-20)
(0.529233 0.949787 -5.04193e-21)
(0.545051 1.08372 0)
(0.470406 1.09931 9.81643e-20)
(0.770031 0.862387 1.79499e-20)
(0.797639 0.981984 0)
(0.76489 0.921061 -7.1898e-20)
(0.630352 1.06067 0)
(0.632485 0.932861 0)
(1.15896 2.72684 -1.30414e-21)
(1.13022 2.78795 9.4372e-21)
(1.01574 2.26214 -5.88307e-20)
(1.04694 2.29095 3.35605e-20)
(1.13677 2.72646 0)
(1.14291 2.69255 -3.96371e-20)
(1.06199 2.46012 -1.36873e-19)
(0.920324 2.16942 -2.54517e-20)
(0.835632 1.54306 0)
(0.810489 1.14662 3.2931e-20)
(0.753249 1.1027 0)
(0.847895 0.194728 0)
(0.817923 0.174486 0)
(0.776222 0.185721 0)
(0.851339 0.206365 -3.04769e-19)
(0.804267 0.216199 1.88118e-19)
(0.923028 0.0502707 -1.62671e-19)
(0.926316 0.092952 0)
(0.896174 0.0998914 7.8061e-20)
(0.883062 0.0607312 3.09454e-19)
(0.886588 0.0553649 -1.90123e-19)
(1.13224 3.36455 -9.58296e-19)
(1.17771 3.28463 0)
(1.13862 3.39663 -1.93609e-18)
(0.629384 3.56295 1.65007e-18)
(0.843324 3.14244 4.18643e-19)
(0.48573 0.854633 1.94387e-19)
(0.377512 0.890058 0)
(0.341821 0.552887 -7.68858e-20)
(0.400046 0.678539 3.46739e-19)
(0.512612 0.532947 -1.09594e-19)
(0.495016 0.554618 1.20804e-19)
(0.602001 0.526935 2.58514e-19)
(0.620464 0.549229 0)
(0.594897 0.611318 0)
(0.54444 0.548864 0)
(0.91693 0.57653 -4.94271e-20)
(0.832538 0.515573 -1.81489e-19)
(0.865008 0.559349 8.33911e-20)
(0.891352 0.4921 -1.34031e-19)
(1.00819 0.464546 0)
(1.00079 0.543104 -5.72769e-21)
(0.787644 0.380938 -3.91205e-19)
(0.79794 0.362157 -4.50957e-19)
(0.770061 0.392072 3.06305e-19)
(0.775723 0.355597 -3.49085e-19)
(0.834192 0.292424 -2.42342e-19)
(0.808617 0.300256 3.05573e-19)
(1.03241 0.00574288 -1.62829e-19)
(1.0314 0.00743973 3.37857e-19)
(1.02488 0.0131702 2.14265e-19)
(1.02574 0.0142485 -2.52688e-19)
(1.02053 0.0159642 0)
(1.02461 0.0103212 -4.19878e-19)
(-0.0145774 1.80659 2.63285e-20)
(-0.0191544 1.80513 0)
(-0.0212875 1.80307 2.21625e-19)
(-0.0201165 1.81883 -2.06293e-19)
(-0.0409869 1.82241 5.84602e-20)
(-0.0337677 1.81364 0)
(-0.0121927 1.78709 0)
(-0.014883 1.78329 -1.02198e-20)
(-0.0141837 1.78016 8.7614e-21)
(-0.0132494 1.7802 2.23122e-21)
(-0.011762 1.78535 -1.84076e-20)
(-0.0112548 1.78706 1.16249e-20)
(0.787117 1.63201 1.00042e-18)
(0.612992 1.75799 -1.06158e-18)
(0.230354 1.39909 9.14475e-19)
(0.283679 1.95294 -5.95472e-20)
(0.732427 1.06278 0)
(0.473194 1.05259 6.54282e-19)
(0.513731 1.07224 -6.41775e-19)
(0.384456 0.960345 -8.9554e-19)
(0.710777 1.06566 0)
(0.765398 1.07144 0)
(0.254381 2.66247 -2.24246e-20)
(0.388943 2.46805 7.95033e-19)
(0.502098 2.54622 -5.16804e-19)
(0.327063 2.38928 -1.81521e-19)
(0.109984 2.49031 2.57698e-19)
(0.22102 2.27993 -6.92686e-19)
(0.918418 2.43407 8.47146e-20)
(0.971443 2.3885 0)
(0.822073 2.15034 -2.03613e-19)
(1.07575 2.73904 0)
(1.09075 2.74926 0)
(0.589053 2.33631 2.24757e-19)
(1.00889 3.18575 4.61489e-19)
(0.879348 3.0718 -4.27691e-19)
(0.328097 0.984921 0)
(0.326093 0.833994 -1.27898e-19)
(0.439016 0.779304 -6.47689e-20)
(0.362819 2.11714 0)
(0.493356 2.8285 -2.92061e-19)
(0.41357 2.59892 0)
(0.647995 0.653838 -2.99321e-19)
(0.696517 0.672967 3.81858e-19)
(0.732149 0.623039 -3.72555e-19)
(0.609606 0.629394 -4.47639e-20)
(0.657926 0.587861 -1.84288e-19)
(0.962475 2.8174 -3.50684e-19)
(1.01068 2.86566 2.52779e-19)
(0.578113 2.18171 1.20936e-19)
(0.596485 1.80498 -1.22434e-19)
(0.648871 1.96 -2.41958e-21)
(0.953182 2.50702 -1.11953e-19)
(0.956724 2.48382 -5.96784e-20)
(0.59531 1.91218 -9.68822e-22)
(0.404956 1.43732 -1.10283e-20)
)
;

boundaryField
{
    wall-4
    {
        type            noSlip;
    }
    velocity-inlet-5
    {
        type            fixedValue;
        value           uniform (1 0 0);
    }
    velocity-inlet-6
    {
        type            fixedValue;
        value           uniform (0 3 0);
    }
    pressure-outlet-7
    {
        type            zeroGradient;
    }
    wall-8
    {
        type            noSlip;
    }
    frontAndBackPlanes
    {
        type            empty;
    }
}


// ************************************************************************* //
