/*--------------------------------*- C++ -*----------------------------------*\
| =========                 |                                                 |
| \\      /  F ield         | OpenFOAM: The Open Source CFD Toolbox           |
|  \\    /   O peration     | Version:  4.0                                   |
|   \\  /    A nd           | Web:      www.OpenFOAM.org                      |
|    \\/     M anipulation  |                                                 |
\*---------------------------------------------------------------------------*/
FoamFile
{
    version     2.0;
    format      ascii;
    class       volScalarField;
    location    "66";
    object      p;
}
// * * * * * * * * * * * * * * * * * * * * * * * * * * * * * * * * * * * * * //

dimensions      [0 2 -2 0 0 0 0];

internalField   nonuniform List<scalar> 
918
(
0.557575
1.18456
0.00128636
0.557022
-0.012563
1.15155
-0.509447
0.664216
0.537774
-0.109362
-0.0482889
0.5398
1.01235
0.778625
-1.12325
-0.0100026
0.652208
-0.380984
0.536887
-0.0578303
0.692275
0.544314
0.547339
0.537917
0.598759
0.752292
0.893648
0.0230698
0.00919293
0.00475345
-0.0118822
-0.0388877
-0.0329498
1.03519
1.08629
1.10899
0.505534
0.333715
-0.374923
-0.447663
-0.435471
-0.544217
0.661474
0.660134
-0.210139
0.667586
0.669909
0.5248
0.537143
0.538055
0.539074
0.538059
0.539439
0.404493
-0.109317
-0.140593
-0.0908137
-0.0839568
0.0534866
-0.0501377
-0.0521965
-0.0465832
-0.0466919
0.454665
0.534041
0.530441
0.544155
0.554319
1.12411
1.09602
1.12217
1.03589
1.05235
0.990328
0.962975
0.798925
0.820962
0.764418
0.750212
-1.55498
-2.50622
-0.533483
-0.282801
-0.0106118
-0.00772791
-0.00207121
0.649111
0.650384
0.651681
0.654095
1.08057
-0.378447
-0.478789
0.537029
0.53584
0.544158
0.544859
0.540879
0.539969
-0.049387
-0.0464444
-0.0486194
-0.0544119
-0.0526264
0.680706
0.681339
0.538446
0.535449
0.561822
0.581585
0.571858
0.278353
0.609463
0.625496
0.584944
0.744856
0.739078
0.747769
0.867271
0.83149
0.930508
0.953645
0.0165972
4.19255e-05
-0.0149896
-0.0195313
-0.0182717
0.501363
0.4939
0.521351
0.508971
0.51148
0.250449
0.117065
0.418647
0.443519
-0.293845
-0.360046
-0.428493
-0.459045
-0.567431
0.612408
0.658327
0.656666
-0.220562
-0.148676
-0.281751
-0.0756124
-0.138479
0.51506
0.522078
0.517074
0.532633
0.527098
0.529062
0.541415
0.538485
0.540044
0.466702
0.590359
0.330644
0.295242
-0.242438
-0.155403
-0.242418
-0.0730229
-0.0694848
0.0674729
0.0930445
0.0403242
0.028636
-0.0638156
-0.0560564
-0.0596891
-0.0448033
-0.0447654
0.447416
0.43621
0.46736
0.474925
0.520465
0.522023
0.526536
0.524309
0.913718
0.936125
0.943695
0.917382
-3.49579
-6.27759
0.041663
0.178034
-0.00670121
-0.00935063
0.00201359
-0.00568568
0.00032022
-0.0018872
-0.00695622
-0.00837208
-0.00342385
-0.00224157
0.643449
0.644659
1.00272
1.00948
0.978411
0.931281
0.525252
0.527321
0.532816
0.5287
-0.0443284
-0.0448624
-0.0437328
0.673242
0.678578
0.676169
0.23988
0.1502
0.329396
0.358517
0.637296
0.625892
0.635573
0.64591
0.682798
0.96106
0.979289
0.977492
0.985821
1.02978
1.04613
1.01159
0.480768
0.490771
0.485706
0.524445
0.522225
0.523122
0.519169
0.520303
0.518371
-0.033386
-0.413413
0.490831
0.507775
0.493099
0.49557
0.692592
0.771255
0.653848
0.655689
0.655102
-0.00655591
-0.0650404
0.250468
0.216379
0.386956
0.423374
0.40234
0.885075
0.845176
0.895383
0.868602
0.82981
0.85593
-0.365005
-1.86453
-0.983669
0.527822
0.34212
0.429594
0.0104309
-0.00635955
-0.00185781
1.00216
1.07451
0.646188
0.82114
0.82381
0.71688
0.745457
0.805818
0.732698
0.766797
0.799593
0.777103
0.568372
0.503902
0.51984
0.840437
0.896231
0.120152
0.0587369
0.0148257
0.111863
0.169141
0.143272
1.03456
0.950061
1.02031
0.53521
0.535931
-0.00495987
-0.0187118
0.540177
0.540232
-0.0121598
-0.00131802
0.411978
-0.831115
0.0998538
0.52876
0.518657
0.535791
-0.0936626
0.355916
-0.0483904
0.0485378
-0.00786198
0.530852
0.465807
0.42488
0.00101948
-0.0189853
-0.0495469
-0.212714
0.53288
0.531184
0.535258
0.5362
0.536881
-0.0181977
-0.0136947
-0.0100589
-0.0463331
-0.0403752
-0.0518133
0.499694
0.518991
-0.16964
0.535405
0.53754
0.537359
0.530623
0.536252
0.534505
-0.0098475
-0.0151283
-0.0174009
0.220294
0.352074
0.650996
0.738023
0.622849
0.399164
0.164188
0.554809
0.61758
0.523761
0.676932
0.654298
0.664607
0.165386
0.0151731
0.174096
0.115722
0.526621
0.525339
0.51691
0.513871
0.530659
0.528773
0.533331
0.530353
0.533303
0.534684
-0.0496691
-0.0777907
-0.0863283
-0.153697
0.310723
0.572006
0.254545
0.284409
0.142185
-0.0429791
-0.0436477
-0.0470273
-0.0554883
0.000947447
-0.0231272
0.0434214
0.0436803
0.0153659
-0.0103547
-0.00732544
-0.0181754
-0.0129857
0.524468
0.524343
0.527861
0.536776
0.475462
0.47925
0.44408
0.464837
0.450095
0.388811
0.424107
0.399333
-0.00492167
0.00374746
-0.00200296
-0.016809
-0.0136016
-0.0324911
-0.02929
-0.0249937
-0.0209705
-0.0276403
-0.0437302
-0.0458764
-0.170665
-0.286544
0.989051
0.910359
0.13759
0.522027
0.528484
0.525244
0.53017
0.533298
0.534098
0.531807
0.528355
0.519252
0.520696
0.517662
0.518668
-0.101209
-0.242439
-0.0706766
-0.144912
0.145425
0.628391
0.363974
0.299513
0.294775
0.523366
0.917079
0.700587
0.672509
0.676209
-0.342495
0.0465612
-0.278696
0.335898
0.163415
0.652155
0.699778
0.719801
0.669166
0.622846
-0.101007
0.556326
-0.0721626
-0.0201014
0.181248
0.0576438
0.664777
0.641682
0.648095
0.657488
0.672478
0.64587
0.630987
0.62843
0.652139
0.654795
0.485022
0.251033
0.201876
0.1634
0.642802
0.519134
0.570653
0.491238
0.521878
0.524439
0.523085
0.504533
0.512128
0.507643
0.514245
0.517823
0.526378
0.52685
0.522118
0.524249
-0.0572881
-0.0633441
-0.0275284
-0.135131
-0.128205
-0.190221
-0.0605791
0.0771231
0.0383695
0.238085
0.34228
0.0536388
-0.0567062
-0.0295532
0.0130047
0.181148
0.209114
0.0747645
0.162434
0.153568
0.135066
0.237629
0.241094
-0.0273723
-0.0302631
-0.034217
-0.0358942
0.0193417
0.0904381
0.0999992
-0.00557007
-0.0115985
-0.0416145
-0.0422514
-0.0204635
-0.0270967
-0.0221627
0.00806801
-0.0520406
-0.0193723
-0.00542313
-0.00264548
-0.00430462
-0.0098849
0.518719
0.520756
0.520956
0.527542
0.541153
0.556072
0.520898
0.497693
0.488467
0.49149
0.46434
0.474665
0.470392
0.484064
0.505056
0.514344
0.512339
0.515212
0.497207
0.499036
0.485567
0.489236
0.464247
0.444963
0.433047
-0.0416244
-0.00281849
-0.0109224
-0.0370182
-0.007236
-0.0193292
-0.0100039
0.00901073
-0.00730679
-0.00884696
-0.0190936
-0.0252585
-0.0247226
-0.0725049
0.0141858
-0.183601
-0.219408
-0.292267
0.891195
1.01532
0.81077
0.583855
0.604002
0.847085
0.93175
0.543903
0.736267
0.759415
0.587182
0.854769
0.526875
0.526472
0.524072
0.523552
0.524773
-0.00664779
0.0994126
0.0981741
0.161123
0.277142
0.388833
0.319334
0.194545
0.324747
0.327225
0.621172
0.633405
0.58883
0.613018
0.61323
0.425644
0.501217
0.55297
0.51347
0.565612
0.58705
0.541059
0.573918
0.523856
0.479127
0.475152
0.425095
0.444745
0.420476
0.403568
0.515707
0.493573
0.50398
0.494654
0.514959
0.543094
0.539512
0.561949
0.576763
0.498347
0.453268
0.462646
0.492874
0.454151
0.469642
0.485827
0.232642
0.134483
0.217435
-0.0679316
0.00341197
-0.00925324
-0.0578057
-0.00694717
0.277336
-0.413953
-0.390517
-1.0179
0.503697
0.954391
0.598614
0.573111
0.672257
0.656102
0.662026
0.67879
0.679254
0.631167
0.64095
0.645763
0.601051
0.622053
0.640708
0.636955
0.525172
0.383892
0.382718
0.331033
0.201208
0.240859
0.437468
0.361438
0.286441
0.28662
0.457267
0.34402
0.413801
0.447571
0.378989
0.333578
0.536046
0.602059
0.595716
0.568891
0.48065
0.493118
0.517383
0.551117
0.575492
0.606742
0.513638
0.519578
0.520808
0.518279
0.515561
0.518648
0.518923
0.521477
0.522085
0.525092
0.524151
-0.0501761
-0.0363951
-0.0501024
-0.0606494
-0.0193605
-0.0212949
0.0242921
0.0088518
-0.0141364
-0.00861055
-0.03195
-0.0366733
-0.0330407
-0.0245916
0.101463
0.114225
0.0984015
0.0587967
0.252021
0.381308
0.455747
0.331116
0.225035
0.248133
0.267404
-0.0108249
0.0138199
0.000985299
0.0406065
0.0329963
-0.0365435
-0.039974
-0.0366562
-0.0295522
-0.0204594
-0.0363175
-0.0413672
-0.0322406
-0.0369539
-0.0396566
-0.0431794
0.499956
0.493395
0.495058
0.488873
0.487602
0.502055
0.506361
0.508316
0.513873
0.516324
0.50611
0.511804
0.515868
-0.0106411
-0.0336073
-0.0372422
-0.0276483
-0.0300063
-0.027687
-0.029146
0.123947
0.0548207
0.0588279
0.0112299
-0.120854
-0.0628258
0.49187
0.490599
0.480047
0.721378
0.570642
0.49125
0.588253
0.693998
0.276482
0.47333
0.30832
0.888921
0.785351
0.931717
0.542845
0.245781
0.409098
0.452308
0.265491
0.340964
0.3255
0.214468
0.24527
0.283073
0.382106
0.265856
0.242533
-0.00079356
0.189669
0.301927
0.283739
0.408437
0.469133
0.266608
0.186322
0.14144
0.606142
0.625617
0.638765
0.611603
0.632753
0.58084
0.572878
0.588483
0.596505
0.590909
-0.746035
-0.452436
-1.39911
-0.721044
-0.266082
0.534156
0.505524
0.769715
0.646717
0.683871
0.668899
0.627637
0.597313
0.620933
0.644166
0.342192
0.452949
0.428165
0.433721
0.336173
0.26661
0.564376
0.561165
0.593911
0.617186
0.589587
0.619071
0.51147
0.511198
0.510643
0.506877
0.505143
0.507518
0.0579658
0.0258147
0.0647396
0.0464505
0.0230574
0.00959074
-0.00855125
-0.0184725
-0.025744
-0.0254656
-0.0113781
-0.00732862
0.171861
0.109545
0.0300759
0.0591173
-0.00164341
-0.0701043
-0.0890346
0.0160888
0.112174
0.102373
0.405846
0.655614
0.47562
0.643103
0.485569
0.541399
0.468576
0.459995
0.484973
0.379911
0.460352
0.248771
-0.259094
-0.16815
0.794175
0.805386
0.581379
0.405601
0.173861
0.352581
0.542476
0.472904
0.508487
0.577456
0.564889
0.0285409
0.086689
0.372123
0.598914
0.240526
0.231613
0.225118
0.408865
0.327434
)
;

boundaryField
{
    wall-4
    {
        type            zeroGradient;
    }
    velocity-inlet-5
    {
        type            zeroGradient;
    }
    velocity-inlet-6
    {
        type            zeroGradient;
    }
    pressure-outlet-7
    {
        type            fixedValue;
        value           uniform 0;
    }
    wall-8
    {
        type            zeroGradient;
    }
    frontAndBackPlanes
    {
        type            empty;
    }
}


// ************************************************************************* //
