/*--------------------------------*- C++ -*----------------------------------*\
| =========                 |                                                 |
| \\      /  F ield         | OpenFOAM: The Open Source CFD Toolbox           |
|  \\    /   O peration     | Version:  4.0                                   |
|   \\  /    A nd           | Web:      www.OpenFOAM.org                      |
|    \\/     M anipulation  |                                                 |
\*---------------------------------------------------------------------------*/
FoamFile
{
    version     2.0;
    format      ascii;
    class       volScalarField;
    location    "39";
    object      p;
}
// * * * * * * * * * * * * * * * * * * * * * * * * * * * * * * * * * * * * * //

dimensions      [0 2 -2 0 0 0 0];

internalField   nonuniform List<scalar> 
918
(
0.594149
1.24383
0.00785284
0.593376
-0.00824314
1.21145
-0.462448
0.754379
0.574018
-0.0522017
0.0110862
0.569511
1.07227
0.836804
-1.08177
0.0210519
0.703941
-0.343388
0.573389
0.017208
0.791502
0.580466
0.583491
0.573887
0.638828
0.819658
0.952665
0.0222521
0.0018171
-0.00376377
-0.000720743
-0.0313012
-0.012602
1.09483
1.14542
1.16798
0.542572
0.378408
-0.309663
-0.390368
-0.382163
-0.50806
0.748521
0.748437
-0.140537
0.756942
0.765187
0.561581
0.573357
0.574296
0.575381
0.574336
0.575759
0.452718
-0.0592219
-0.0903247
-0.0332619
-0.0215952
0.0951521
0.0137647
0.0120071
0.0169313
0.0124842
0.492756
0.565219
0.562495
0.574709
0.584078
1.18258
1.15363
1.17922
1.09616
1.11101
1.05
1.02187
0.858689
0.879959
0.821332
0.808667
-1.50333
-2.46249
-0.49612
-0.243914
-0.00197027
0.0289865
0.0371351
0.69458
0.693015
0.70435
0.717994
1.13074
-0.322168
-0.476374
0.573198
0.572175
0.58029
0.580648
0.577813
0.575894
0.0206671
0.0196209
0.00813743
0.0148357
0.0108975
0.779804
0.778279
0.575567
0.572162
0.589327
0.608934
0.603288
0.323845
0.641319
0.650962
0.638854
0.806856
0.802943
0.810926
0.927268
0.889687
0.990033
1.01358
0.0149975
0.00509909
0.0132926
-0.0034763
0.0080242
0.538497
0.530488
0.557442
0.545961
0.54839
0.295169
0.162037
0.471636
0.499578
-0.222843
-0.294468
-0.38539
-0.413256
-0.517508
0.662604
0.737401
0.736743
-0.151614
-0.0861987
-0.215179
-0.00362094
-0.0682714
0.551908
0.558896
0.553247
0.56893
0.56365
0.565247
0.57766
0.574729
0.576249
0.513741
0.616278
0.383492
0.342824
-0.203027
-0.104034
-0.202348
-0.00773236
-0.00267483
0.11444
0.142106
0.0853811
0.0818564
0.00345071
0.0107549
0.00913711
0.0101405
0.0124692
0.487439
0.477461
0.506161
0.513382
0.555858
0.556791
0.559907
0.558468
0.972207
0.99484
1.00309
0.976659
-3.4789
-6.53437
0.0821082
0.223114
0.00601964
0.00563532
0.00452755
0.00953968
0.00810219
0.00338996
0.0606698
0.0464374
0.0372057
0.047791
0.679225
0.680656
1.03616
1.02912
0.999473
0.942109
0.561398
0.563521
0.569019
0.564516
0.0154292
0.0191495
0.0196074
0.765789
0.773986
0.771836
0.287188
0.201385
0.374329
0.402686
0.667829
0.656196
0.666375
0.701127
0.735054
1.0201
1.03785
1.03819
1.04609
1.09124
1.10417
1.06983
0.518868
0.528303
0.523878
0.560586
0.558307
0.559202
0.554939
0.556232
0.553624
-0.00790504
-0.368061
0.5603
0.57625
0.555571
0.562761
0.73427
0.802194
0.718169
0.72789
0.726935
0.0637547
0.00260907
0.298611
0.266989
0.428641
0.464241
0.44147
0.94333
0.904998
0.954902
0.928298
0.888552
0.914945
-0.40705
-1.64754
-0.906851
0.580994
0.391204
0.479352
0.0602865
0.0521701
0.0432099
1.01778
1.10961
0.663905
0.851345
0.900171
0.77412
0.806078
0.862847
0.784804
0.820958
0.857236
0.839433
0.619706
0.574178
0.578519
0.864927
0.917785
0.181154
0.130086
0.0739474
0.158755
0.215585
0.187095
1.06051
0.972331
1.04493
0.571771
0.57238
0.018293
0.0302527
0.576567
0.576759
0.00306482
0.00193805
0.465631
-0.778352
0.159078
0.564702
0.555025
0.571967
-0.0437761
0.416054
0.0143045
0.103988
0.0523915
0.56717
0.503395
0.465162
0.0301149
0.0219446
0.0166558
-0.177295
0.569285
0.567437
0.571478
0.572527
0.573162
0.0191854
0.0202562
0.0203059
0.0208697
0.0235219
0.0207789
0.536677
0.553982
-0.123995
0.5716
0.573804
0.573613
0.566482
0.572333
0.570265
0.0267529
0.00278587
0.00290861
0.275114
0.398493
0.709393
0.809609
0.680679
0.448257
0.196404
0.610554
0.675535
0.580808
0.734938
0.728824
0.750401
0.229821
0.0709429
0.231065
0.170288
0.562899
0.561294
0.553428
0.550384
0.56692
0.565102
0.569508
0.566467
0.569368
0.570812
0.00309849
-0.0203484
-0.0369456
-0.106913
0.372206
0.639748
0.3049
0.346303
0.190363
0.0150857
0.016592
0.0157897
0.0112319
0.0576475
0.0345117
0.0992742
0.0988178
0.0706511
0.0462973
0.0473155
0.0343856
0.0325337
0.560622
0.558932
0.565293
0.573704
0.512762
0.516534
0.482246
0.502513
0.48781
0.430105
0.464811
0.439996
0.0237404
0.0347652
0.0170108
0.0241812
0.0247599
0.0364239
0.0326264
0.0281204
0.0274419
0.0229578
0.0170896
0.0184388
-0.135514
-0.247565
1.03332
0.966084
0.162722
0.558279
0.564853
0.561469
0.566466
0.569532
0.570387
0.568153
0.564726
0.554582
0.556365
0.552847
0.553518
-0.0558547
-0.200353
-0.0311401
-0.0933965
0.169554
0.661346
0.409842
0.338922
0.339523
0.565088
0.984106
0.75156
0.738396
0.775497
-0.31561
0.0615523
-0.253589
0.338061
0.161346
0.70871
0.759413
0.781954
0.727605
0.680002
-0.20899
0.579885
-0.0120786
0.0330315
0.234546
0.124209
0.753909
0.712832
0.719014
0.738179
0.759033
0.716345
0.698355
0.695563
0.73412
0.738731
0.539684
0.309454
0.254558
0.221379
0.696996
0.578809
0.632182
0.545022
0.557762
0.560545
0.559081
0.541466
0.548816
0.544457
0.550432
0.553629
0.562897
0.563454
0.558508
0.560776
0.00550331
0.00129301
0.028019
-0.0915449
-0.0819546
-0.157937
-0.0105155
0.111939
0.0794725
0.278433
0.358315
0.0871476
-0.00969999
0.0164542
0.0395649
0.213836
0.271375
0.125739
0.208506
0.202611
0.184013
0.299868
0.2969
0.0273211
0.0210583
0.0240519
0.0217305
0.0725465
0.140841
0.15768
0.046186
0.0426609
0.016371
0.012126
0.0251471
0.0245341
0.0258687
0.0660761
-0.0353197
0.0197045
0.041129
0.0496772
0.0466215
0.0343678
0.553533
0.555525
0.55531
0.563369
0.580053
0.595796
0.553911
0.535011
0.525729
0.528484
0.501991
0.512522
0.507891
0.520966
0.541443
0.550512
0.548728
0.551387
0.534467
0.536026
0.522945
0.526408
0.503632
0.484944
0.472903
0.0180826
0.0472287
0.0620618
0.00359591
0.0359324
0.0185132
0.0421984
0.0600741
0.0436739
0.0329261
0.0292347
0.0316844
0.0332719
-0.0356232
0.0505806
-0.142535
-0.177689
-0.253
0.93595
1.04189
0.858511
0.626572
0.639945
0.884884
0.966999
0.597596
0.769356
0.798481
0.634903
0.880942
0.563333
0.562892
0.560438
0.559971
0.561296
0.0345901
0.141341
0.140842
0.204627
0.315004
0.436998
0.345571
0.220055
0.35212
0.342887
0.655493
0.67199
0.623073
0.646216
0.645959
0.47243
0.549521
0.603742
0.559495
0.603491
0.623307
0.587503
0.614198
0.564348
0.518588
0.519093
0.466804
0.480997
0.460059
0.443091
0.553024
0.530085
0.540397
0.531276
0.551932
0.57483
0.569681
0.602393
0.613363
0.535872
0.494688
0.50188
0.533077
0.494868
0.509186
0.52373
0.26254
0.192734
0.22961
-0.0592462
0.0254721
-0.0503169
-0.0825073
0.0351333
0.333616
-0.408606
-0.467616
-1.02398
0.523128
1.04977
0.709134
0.65286
0.755949
0.731688
0.733569
0.764179
0.767041
0.687753
0.704902
0.711834
0.663926
0.686283
0.716031
0.711727
0.566144
0.421848
0.413562
0.376092
0.253229
0.291642
0.494136
0.408222
0.335123
0.349709
0.510125
0.403776
0.468364
0.496695
0.417428
0.390532
0.586769
0.657451
0.646098
0.618806
0.540232
0.552368
0.581576
0.615645
0.640996
0.677402
0.549979
0.555912
0.557218
0.554774
0.551846
0.554727
0.554884
0.557504
0.55829
0.561382
0.560332
0.0138232
0.024538
0.0120874
0.00310117
0.0284118
0.0256481
0.0761601
0.0612956
0.0427231
0.0496118
0.0230332
0.0226482
0.0270963
0.0350905
0.15075
0.151666
0.133485
0.101363
0.28182
0.420088
0.483653
0.361944
0.270812
0.296243
0.30999
0.0319417
0.060818
0.0493755
0.0866216
0.083744
0.0226677
0.0212484
0.0206527
0.0226679
0.0352487
0.0151847
0.0215806
0.0265316
0.0190823
0.0185177
0.0188745
0.537583
0.531159
0.531481
0.526062
0.525218
0.538111
0.54245
0.544794
0.550142
0.55192
0.542621
0.54784
0.551386
0.0408498
0.0196165
0.00567983
0.031391
0.0280012
0.0322318
0.0281102
0.163622
0.0950363
0.0932976
0.0490932
-0.0824632
-0.0247099
0.530507
0.528951
0.533189
0.757364
0.610649
0.534534
0.63593
0.735701
0.310948
0.503215
0.338955
0.921736
0.811817
0.957552
0.567182
0.270283
0.42993
0.488023
0.277347
0.355067
0.358043
0.259163
0.287389
0.310369
0.414237
0.304219
0.286087
0.0361463
0.2317
0.349714
0.335949
0.461609
0.528804
0.286974
0.214048
0.183333
0.645997
0.665931
0.689519
0.656101
0.681771
0.612128
0.600466
0.61916
0.62793
0.623872
-0.748522
-0.460304
-1.37173
-0.663539
-0.223832
0.554085
0.519002
0.798889
0.684053
0.74316
0.72881
0.697984
0.661815
0.674289
0.706377
0.407053
0.512632
0.489429
0.492643
0.385506
0.329762
0.627078
0.618909
0.65858
0.681608
0.648211
0.68322
0.5478
0.547521
0.546893
0.543643
0.542218
0.544244
0.10993
0.077016
0.122262
0.100736
0.0763004
0.0601313
0.0475974
0.0401126
0.0313539
0.0286008
0.0431464
0.0455855
0.194714
0.134132
0.0661738
0.0931148
0.0318471
-0.0368416
-0.056185
0.0485434
0.140518
0.141603
0.448145
0.686229
0.506702
0.676586
0.54339
0.574572
0.524546
0.521302
0.548174
0.430925
0.50559
0.316622
-0.218824
-0.0987465
0.780517
0.844049
0.618786
0.489684
0.199343
0.328845
0.59364
0.519333
0.562346
0.633561
0.624368
0.0444603
0.0737775
0.405068
0.606959
0.275501
0.208599
0.224292
0.387149
0.340586
)
;

boundaryField
{
    wall-4
    {
        type            zeroGradient;
    }
    velocity-inlet-5
    {
        type            zeroGradient;
    }
    velocity-inlet-6
    {
        type            zeroGradient;
    }
    pressure-outlet-7
    {
        type            fixedValue;
        value           uniform 0;
    }
    wall-8
    {
        type            zeroGradient;
    }
    frontAndBackPlanes
    {
        type            empty;
    }
}


// ************************************************************************* //
