/*--------------------------------*- C++ -*----------------------------------*\
| =========                 |                                                 |
| \\      /  F ield         | OpenFOAM: The Open Source CFD Toolbox           |
|  \\    /   O peration     | Version:  4.0                                   |
|   \\  /    A nd           | Web:      www.OpenFOAM.org                      |
|    \\/     M anipulation  |                                                 |
\*---------------------------------------------------------------------------*/
FoamFile
{
    version     2.0;
    format      ascii;
    class       surfaceScalarField;
    location    "39";
    object      phi;
}
// * * * * * * * * * * * * * * * * * * * * * * * * * * * * * * * * * * * * * //

dimensions      [0 3 -1 0 0 0 0];

internalField   nonuniform List<scalar> 
1300
(
3.75095
5.62643
-3.0137
3.75095
-7.48841
5.62643
-4.44265
4.44265
-0.874237
0.874237
1.87646
1.87449
-3.01029
3.01029
-2.44438
2.44438
-2.54889
2.54889
-5.24638
5.24638
-5.06851
5.06851
4.6596
-4.6596
-6.12701
6.12701
-1.22642
1.22642
-3.8856
3.8856
3.16875
-3.16875
-2.32251
2.32251
-0.234114
0.234114
-0.553139
4.30409
3.19781
3.19781
-2.02677
2.02677
-4.86415
4.86415
6.21749
-6.21749
4.8697
-4.8697
-1.856
-2.13276
1.74921
-11.4914
-5.7392
-5.7392
-8.44022
8.44022
-2.81379
2.81264
2.94447
-2.94447
-1.86263
1.86263
-4.35688
-0.0857714
-4.35688
4.45183
-0.00917932
4.45183
-0.966506
0.0922691
-0.966506
3.91893
-3.91893
0.748527
0.12571
0.748527
3.06508
-3.06508
-1.87716
3.75362
1.87379
-1.87178
6.17587
-1.87917
3.75366
-5.95308
5.95308
-3.21005
0.199761
-3.21005
2.83912
0.171177
2.83912
-6.76925
6.76925
-2.5399
0.0955187
-2.5399
2.38153
0.0628469
2.38153
2.86804
-2.86804
-2.65206
0.10317
-2.65206
2.43487
0.114021
2.43487
0.353682
5.27275
-5.98011
8.79275
-5.27275
0.0263644
5.20822
0.0381678
5.20822
-5.10574
0.0372331
-5.10574
5.01272
0.0557956
5.01272
4.73619
-0.0765917
4.73619
-4.78449
0.124887
-4.78449
-3.67555
-4.14554
-6.30224
0.175229
-6.30224
-1.22314
-0.00328231
-1.22314
1.18386
0.0425542
1.18386
-3.62639
3.62639
-4.22332
0.337722
-4.22332
3.12263
0.0461289
3.12263
1.86903
1.88193
5.61998
-5.61998
2.45122
-2.33409
0.0115755
-2.33409
-2.30184
-2.56786
2.30184
0.0206748
-0.483519
0.249406
-0.483519
3.16009
0.0377212
3.16009
2.28124
0.153629
-2.28124
0.254471
3.23228
-3.23228
1.35801
0.668761
1.35801
-5.56797
5.56797
4.95382
0.0588983
-4.95382
0.0896675
6.15637
0.06112
6.15637
-6.1999
-0.0175862
-6.1999
2.7357
-4.86846
-2.41945
5.9255
0.201505
-5.9255
0.186303
2.91472
0.0297539
2.91472
-2.9189
2.9189
-2.98395
0.0394841
-2.98395
-2.24658
0.383944
-2.24658
1.57671
0.285921
1.57671
-4.22514
-0.131739
-4.22514
-4.36938
0.14606
4.36938
0.0824474
1.17258
-1.17258
-1.07676
0.110258
-1.07676
-4.06801
-0.157133
4.06801
-0.149078
-3.77244
-0.146492
-3.77244
-3.02395
0.0399991
3.02395
0.0411244
3.11314
0.0469506
-3.11314
0.0480651
-1.87089
3.75282
-1.88006
3.75386
-5.57923
-0.373848
-5.57923
6.26259
-0.309513
6.26259
3.56255
0.32305
-3.56255
0.352496
2.71012
0.129
2.71012
-6.73805
-0.0312079
-6.73805
6.75026
0.018998
6.75026
2.6183
0.0918211
-2.6183
0.0783971
2.34857
0.0329618
2.34857
2.88531
-0.0172678
2.88531
-2.86733
-0.000717641
-2.86733
2.79768
-2.79768
2.72882
0.0688618
-2.72882
0.076753
-11.1326
11.115
-0.0349774
-11.0976
5.17324
5.17324
4.15264
0.583558
4.15264
-5.0004
0.215911
-5.0004
3.11422
-5.53367
3.13214
-6.80769
4.73433
-16.2257
4.3234
-8.46894
6.58304
-6.58304
6.44593
0.137114
-6.44593
0.143695
-1.26026
0.0371283
-1.26026
-3.02715
-0.599247
-3.02715
4.27439
-0.647994
4.27439
-3.02776
3.02776
-3.07672
0.0489665
3.07672
0.0459017
2.34724
0.00133281
-2.34724
0.0131516
0.621882
0.126645
-0.621882
0.138362
3.41355
-0.181263
3.41355
-3.04592
-0.186363
-3.04592
-1.30323
0.0429634
1.30323
0.0547847
-5.81539
0.247427
-5.81539
-11.191
0.0933505
-11.1528
-6.10655
-6.10655
2.33367
11.1264
-2.8886
0.021279
2.8886
0.0261116
2.97429
0.0534682
-2.97429
0.0553875
-2.86021
0.0625277
2.86021
0.0586951
-2.63104
0.38446
-2.63104
-1.16413
1.16413
-1.34049
0.176355
1.34049
0.236223
1.40777
-0.235196
1.40777
1.14349
0.0403716
-1.14349
0.066728
-3.66701
-0.10543
-3.66701
6.49649
-0.233895
6.49649
-2.94001
-0.105911
2.94001
-0.054699
-0.0334588
11.1485
-5.13978
0.0340343
5.13978
-11.2096
11.2436
-3.25929
0.628252
3.25929
0.893346
5.29064
0.277327
-5.29064
0.290237
6.68828
0.0619742
-6.68828
0.105237
-2.54715
-0.479993
-2.54715
-5.01308
-0.56615
5.01308
-0.738694
-11.4726
-0.205051
11.6776
-11.4168
6.02044
0.135923
-6.02044
11.3795
-1.09682
-0.0757543
1.09682
0.06731
1.70784
-0.300069
1.70784
3.57989
-0.166341
-3.57989
-0.0871168
-6.64883
-0.0892173
6.64883
-0.15234
-2.10597
-0.441179
2.10597
-0.398131
-4.26688
4.30461
1.90899
-2.51573
-2.35274
-5.08359
1.85154
1.90128
4.30276
-10.1815
-6.04415
-9.99523
7.2605
-6.97026
-9.27288
9.19629
7.63344
-7.77993
-5.78708
5.83298
6.48263
-6.44151
1.87873
1.8749
7.86401
-7.66425
-15.6483
15.2745
7.44313
-7.34761
15.8292
-15.8604
-17.8984
17.9604
-5.71307
5.81625
-6.72727
6.72655
-6.94591
6.89121
-3.20238
-3.6053
13.1535
-12.9783
8.38142
-8.36984
-8.53689
8.87461
3.38196
0.922645
3.42891
-1.88232
3.76105
-1.87134
3.78033
2.67819
-5.88058
2.85547
-5.20821
4.02951
4.3519
-4.05019
-1.0334
-5.91918
5.94893
-5.82168
5.88038
8.99625
-9.08202
-1.8852
3.7601
-1.86865
3.76993
-3.42648
-2.3606
3.38035
0.922412
8.0793
5.07421
-8.2808
-1.71443
-7.95205
7.78571
-8.1778
7.99144
-0.435614
5.81628
-5.38067
4.42854
-1.55457
7.37086
5.70593
5.92184
5.86484
-5.58751
1.10543
-6.4861
-6.39643
-2.50503
2.61529
2.43888
-2.31317
5.98366
1.64978
5.83458
-5.63765
-2.14228
-5.74309
3.82179
2.01119
3.87076
4.07683
2.40581
4.11682
3.03072
-3.0356
0.00487886
-3.05625
6.08697
0.724505
-5.41685
-4.49444
4.9196
2.94442
5.09077
-5.46622
-2.19803
-5.11373
-9.53684
-6.11151
-10.103
10.1172
5.15726
9.80773
-12.0019
11.8496
4.75116
2.69197
4.814
-4.87327
-2.47434
-4.79487
11.6421
-2.59387
-9.0482
-10.349
-7.54946
10.33
5.49925
10.9817
6.97869
11.087
4.43643
7.20563
-9.93569
2.38623
-3.86725
-1.84582
-3.7905
3.68785
2.12839
3.80187
-4.21309
-2.51418
-4.19181
-4.2878
-2.65811
4.30507
2.42149
-4.4015
-3.7763
4.50741
2.3838
4.08795
-10.1321
4.38099
-7.9863
-9.23018
-3.74809
-9.08649
3.55147
2.60688
-6.15835
-2.32911
8.57072
-4.21882
7.53732
-5.07474
-3.29511
-5.06158
-6.8009
-1.73598
-6.65484
-8.8426
8.3626
-9.17261
8.52462
12.5964
-5.68849
-6.90793
-3.96846
-2.47305
3.92039
-0.491482
-3.71074
3.71562
0.0503059
3.83063
4.75328
4.2618
-3.88783
-1.93385
-3.83244
3.83206
2.04832
3.89459
6.77745
2.2188
6.76827
-6.48882
-2.5932
-6.62056
9.04124
-8.6573
2.90022
-2.85725
5.34418
2.64725
-5.16292
-2.78913
6.19335
-3.17712
-3.01623
-12.209
10.5738
1.63523
-4.83814
-0.409603
-0.175489
-5.49276
-3.78012
5.36787
0.553962
11.1277
7.34761
-5.513
5.76043
6.16461
6.22351
-0.172918
5.77793
-5.14967
5.32915
-2.4406
-2.88855
5.33687
-5.49401
-1.28369
-5.32581
4.04213
0.340575
1.67419
-1.42478
-1.95678
-0.548245
-1.89006
1.46127
0.977611
1.58792
0.949468
1.66582
-2.95566
0.555085
2.40058
-2.00619
-1.75809
-3.71207
-1.10334
4.81541
5.68345
2.10227
-5.59633
-0.146755
2.63745
-2.59489
-0.742661
-2.96941
2.17618
-2.91884
-3.70729
-1.89151
5.59881
-3.37123
-0.461218
3.31776
0.552998
-3.82551
-2.09366
3.78603
0.330795
-3.12543
6.18835
-3.06293
-5.05928
2.52878
3.55819
4.53997
-4.78906
2.44629
2.34277
-1.23088
4.20596
0.884809
4.33496
-6.75672
4.55869
5.73547
3.13914
-6.05852
0.944792
-5.81193
8.45659
-7.28079
-1.1758
4.09103
4.36556
7.13646
5.45996
-5.72698
12.8634
-1.18788
-6.09292
6.99981
-3.86066
4.77007
-8.63074
-10.23
4.13712
-9.19918
10.9732
-1.77403
-3.63799
-8.36395
12.8372
-1.20989
-11.6273
8.59785
-4.14015
-4.24513
8.38528
-6.73402
6.71948
-1.93465
-4.78482
-10.1427
-5.71778
10.2319
1.61772
-9.84598
12.2322
-2.64035
4.0694
0.744602
4.10237
3.21593
-5.39097
2.17504
3.51809
-5.45274
2.04925
-7.44023
-6.78734
12.1517
-5.3644
-10.5354
-9.57275
-0.962686
2.52439
9.70782
-9.50308
7.43517
2.06792
3.30857
0.586022
-3.37743
-0.413072
0.249261
4.5329
-4.78217
4.05113
4.20476
3.34164
1.19126
3.84108
2.10785
-3.86719
-0.324615
-4.15317
1.49506
-1.73169
-3.67829
5.17335
-4.06789
0.389596
-2.73935
-3.50897
6.24832
-4.58518
3.03743
3.15092
5.08575
-4.91378
1.40481
-2.40074
-2.51304
2.66308
-4.39476
1.97541
3.19794
4.35921
0.582906
5.94578
6.20596
-8.55266
0.566366
11.2802
-9.56573
2.49021
8.59675
-9.92538
0.352629
-8.73386
1.02659
-5.24541
-5.13176
5.09398
-6.82996
-3.53676
6.15073
0.617539
-6.23318
-0.421669
-6.02262
-2.81997
-6.4638
-3.04729
-6.12532
-8.77427
-1.63804
-7.13623
6.72457
-6.67259
-3.4304
7.41128
1.11333
-7.39023
7.31448
-7.46905
7.16899
0.0950188
3.6206
4.35682
1.88377
-2.38972
4.27349
-5.07526
7.29406
-8.54647
3.47121
4.0115
-6.6047
-4.53496
5.03097
4.01027
5.31689
8.91186
-10.4181
1.50628
-10.7314
12.0361
-1.30466
-16.49
5.75856
-7.57812
2.59199
0.308225
2.62912
0.607842
2.49004
-3.09789
-2.24941
-2.19463
-2.36567
-3.44589
5.81156
1.14621
-3.46498
2.31876
-3.53005
4.67626
-0.104364
-3.36061
5.30937
-2.81933
5.61759
-3.63442
1.98318
3.37403
5.72628
-2.35225
4.37646
-1.7292
1.85857
-4.21082
-1.58733
-2.96748
5.09587
-3.28084
3.67044
-0.313706
3.98415
-4.08014
0.903015
-0.738495
3.46627
3.72074
4.28332
-3.09206
2.94373
-4.67293
-1.2671
-4.09002
-0.892083
-0.292219
-3.75245
4.04467
6.03389
-6.32611
-5.23078
9.54556
-4.31477
7.72569
-5.39065
-2.33504
-4.24728
-4.41002
3.86282
1.91511
9.6408
0.234733
-5.62538
-4.91494
-4.02159
3.19737
2.13178
-1.89432
3.52955
2.06981
-0.395616
0.535486
1.05243
1.85996
-1.32448
0.23399
1.62597
-1.19079
1.92879
0.708658
-1.96916
0.0791047
-1.3387
3.51488
1.06187
-2.03949
0.71501
1.04881
-3.48941
4.92215
-2.54023
-2.38192
5.97096
1.14275
-3.68298
4.18306
-3.84249
2.34097
-3.44431
-1.342
-5.18449
-3.53471
-2.57913
4.8979
-3.23243
5.3347
1.1906
-5.18794
6.37855
-3.5914
1.69989
-3.09899
3.80764
-1.08486
-2.01412
2.85244
2.74637
-2.96579
-0.00361576
-0.113359
2.35427
-2.46763
-0.564568
-2.57076
-4.57287
4.90366
-2.10643
4.55272
2.16706
-1.91525
6.46797
1.8106
-3.72585
-3.24867
-3.70989
-1.38308
3.1569
-0.575985
-4.21889
-5.36081
4.12706
0.207898
-6.87026
7.67159
-0.801333
-3.92584
-0.632847
4.72387
-5.9251
0.472355
-3.87584
3.79575
4.68056
4.88845
-11.4093
-0.217989
-6.25204
1.14414
-7.39618
5.5097
-3.59675
7.73387
-10.38
6.94962
-9.26668
6.55807
-0.838103
6.25812
-4.08308
2.79008
-8.50785
-6.89013
5.38506
-2.69309
6.12966
-3.05185
9.18151
-5.6922
5.15158
4.02994
-0.971742
-4.08984
-5.16543
4.19369
-0.0138551
4.08851
4.97307
-2.86522
4.64845
2.2605
-4.66124
-2.13427
-6.50074
1.83951
-3.34983
-1.91657
3.75608
3.16918
3.75521
1.24304
-3.34214
7.221
-8.18368
-1.8566
-3.27516
5.16045
-0.966759
3.38006
-6.65522
-1.86535
4.86657
-0.847789
-4.01878
0.821921
-4.35868
1.6571
-6.01578
5.17286
-5.59453
2.19069
-9.76882
-5.19954
-5.13223
-2.23179
-5.23727
-7.60057
5.36879
-1.84202
5.47246
-8.55916
7.71137
-3.47693
8.84571
-5.42907
-1.03473
5.8272
1.34178
10.1875
0.172609
-4.70757
-1.89818
3.95254
-2.05436
1.29919
-3.57984
0.3727
2.48596
3.485
-6.52808
-0.0766175
-4.78419
-3.92706
7.93733
5.6185
11.6524
1.23425
9.11876
-1.18144
10.353
4.13546
4.37168
-3.0152
4.52148
1.02947
4.50068
-0.850472
2.83365
1.77865
1.77537
0.819526
2.32577
1.39496
3.22879
0.130903
-2.06373
4.63073
-8.65232
-0.994655
-8.06877
1.12752
5.82446
-4.69693
3.08936
-0.957577
1.035
0.0890655
-1.60484
1.51577
-2.79948
-2.00046
-0.374484
-1.64347
2.35848
1.87141
-1.984
-0.815483
0.358576
-3.89329
3.08574
-3.08935
-0.342981
6.03556
-2.77079
0.303166
-1.07091
-2.2676
-2.81584
2.73674
6.17559
0.292371
3.11267
5.19604
3.10237
0.237158
3.87587
-5.6499
-3.56436
-5.86789
-0.358186
4.36569
1.74603
7.96178
5.77597
4.80921
-1.84601
-10.0297
6.52177
-2.0003
5.21711
-1.19833
-4.81744
4.99154
2.30252
-5.60907
0.0145421
-4.8029
-6.8032
-0.556693
8.26806
-9.6308
8.59607
5.7761
1.36013
-4.40662
-0.725612
4.23026
0.141418
10.4944
-1.17984
-6.73842
7.91826
-4.64462
3.64996
0.779516
2.75003
2.29529
1.33771
-5.4007
-10.0976
-1.94803
-1.54138
-4.32995
0.485456
-2.35686
6.27329
-2.62333
3.93825
5.29493
6.32993
-2.14872
-4.17738
6.46349
-2.52525
3.80468
)
;

boundaryField
{
    wall-4
    {
        type            calculated;
        value           uniform 0;
    }
    velocity-inlet-5
    {
        type            calculated;
        value           uniform -3.75095;
    }
    velocity-inlet-6
    {
        type            calculated;
        value           uniform -5.62643;
    }
    pressure-outlet-7
    {
        type            calculated;
        value           nonuniform List<scalar> 8(3.0137 7.48841 3.98876 9.74215 7.82108 5.15515 6.24636 9.05773);
    }
    wall-8
    {
        type            calculated;
        value           uniform 0;
    }
    frontAndBackPlanes
    {
        type            empty;
        value           nonuniform 0();
    }
}


// ************************************************************************* //
