/*--------------------------------*- C++ -*----------------------------------*\
| =========                 |                                                 |
| \\      /  F ield         | OpenFOAM: The Open Source CFD Toolbox           |
|  \\    /   O peration     | Version:  4.0                                   |
|   \\  /    A nd           | Web:      www.OpenFOAM.org                      |
|    \\/     M anipulation  |                                                 |
\*---------------------------------------------------------------------------*/
FoamFile
{
    version     2.0;
    format      ascii;
    class       volVectorField;
    location    "39";
    object      U;
}
// * * * * * * * * * * * * * * * * * * * * * * * * * * * * * * * * * * * * * //

dimensions      [0 1 -1 0 0 0 0];

internalField   nonuniform List<vector> 
918
(
(0.985091 -0.000549463 0)
(0.00478611 2.96626 0)
(0.000486694 0.793934 0)
(0.979828 0.00240823 0)
(-0.0327691 1.99252 1.18063e-20)
(-0.00704966 2.94891 -1.1259e-18)
(0.825818 1.17973 1.67524e-19)
(0.283891 0.139736 -6.71952e-21)
(0.999905 -0.000301497 0)
(0.0494045 0.849456 0)
(0.0219492 0.664003 0)
(0.731393 -0.0126782 0)
(0.0115241 2.93012 0)
(0.00300499 2.79516 0)
(-0.0202442 3.15286 3.2802e-19)
(0.00302639 1.85459 -9.40166e-21)
(0.354781 0.0415026 4.40088e-19)
(0.19344 1.20129 1.14127e-19)
(0.961978 0.0038844 0)
(0.0120826 0.624198 0)
(0.0658312 0.174947 -3.19661e-19)
(1.00217 -0.00520192 0)
(1.00077 -0.0101529 0)
(0.975974 -0.00653282 0)
(0.580459 -0.0251814 0)
(0.0183518 2.63705 0)
(-0.0148824 2.91016 3.97797e-19)
(0.000700119 0.867579 0)
(0.0133098 1.06658 0)
(-0.0022099 0.843645 0)
(-0.0259404 2.60008 0)
(-0.0057092 2.07212 -9.18837e-21)
(-0.0188811 1.807 0)
(-0.0204429 2.98751 -4.06231e-23)
(-0.0169827 3.00539 8.9436e-19)
(0.00201416 3.00015 0)
(0.870615 -0.00870423 0)
(0.436952 0.972303 8.64807e-20)
(0.798294 1.19778 -1.68937e-19)
(0.944087 1.03349 1.95467e-19)
(0.669178 1.29532 -3.82675e-20)
(0.672465 1.28115 2.25074e-19)
(0.326755 0.219731 6.55176e-21)
(0.296852 0.112129 0)
(1.1257 0.570416 0)
(0.295471 0.209552 2.99411e-20)
(0.251754 0.142212 -3.10886e-20)
(0.919553 -0.00727177 0)
(1.00028 0.000154493 0)
(0.999916 0.000340653 0)
(1.00351 -0.00767627 0)
(1.00096 -0.00094585 0)
(1.00019 2.3094e-05 0)
(0.0647485 1.79696 -3.51123e-19)
(0.0237577 1.02987 0)
(0.0727066 0.909589 0)
(0.00914247 0.978761 0)
(0.029568 0.795334 0)
(0.0214739 1.99099 0)
(0.0233525 0.855012 0)
(0.0157264 0.69508 0)
(0.0114406 0.832105 0)
(0.000700407 0.637737 0)
(0.837815 -0.0143461 0)
(0.848401 0.027891 0)
(0.766159 -0.00264378 0)
(0.820751 0.0373055 0)
(0.698907 -0.0140288 0)
(0.0153306 3.00066 4.09565e-19)
(0.0116975 3.0084 0)
(0.00650332 3.00255 0)
(0.014158 2.99722 4.60749e-24)
(0.00835244 2.95851 -6.19031e-19)
(0.0152078 2.98185 0)
(0.0112539 2.90364 0)
(0.0252039 2.9302 9.1728e-25)
(0.00504351 2.8252 0)
(0.031841 2.9161 0)
(-0.0049587 2.74546 0)
(0.303954 3.546 0)
(-0.145961 3.62291 0)
(0.135335 3.24546 -3.02777e-19)
(-0.0101146 2.98532 0)
(-0.00289266 2.08948 0)
(-0.015199 2.12198 9.27086e-21)
(0.00162252 1.87167 -1.35933e-20)
(0.455164 0.138888 -1.52247e-19)
(0.346747 0.027743 -1.46759e-19)
(0.439691 0.160495 -4.58433e-19)
(0.33878 0.061774 -3.02958e-19)
(0.188927 0.946288 0)
(0.230791 1.33802 -1.37369e-19)
(0.372808 1.29286 2.33691e-19)
(0.987349 0.00823094 0)
(0.941295 0.00546243 0)
(1.00031 0.000430054 0)
(1.00326 0.00949512 0)
(1.00287 0.0078509 -1.17918e-18)
(0.991774 0.00988967 9.00403e-19)
(-0.00706932 0.806386 0)
(0.00765872 0.632136 0)
(-0.00172752 0.895953 0)
(-0.00566435 0.795779 0)
(-0.0148858 0.616631 0)
(0.111293 0.182089 9.90735e-20)
(0.165534 0.16179 0)
(0.993359 -0.00825388 0)
(0.954473 -0.0061535 0)
(0.769988 0.0444871 0)
(0.706776 0.0567163 0)
(0.660622 -0.0235575 0)
(0.960369 -0.00621255 0)
(0.617639 0.0796062 0)
(0.44256 0.000676451 6.45446e-19)
(-0.0362847 2.86455 2.98937e-19)
(0.0419412 2.90947 0)
(0.0551145 2.88465 0)
(-0.00402149 2.69851 0)
(-0.0136422 2.98496 3.76634e-19)
(-0.0181956 2.89504 0)
(-0.0159652 2.988 -1.16976e-18)
(-0.0131213 2.92537 4.01656e-19)
(0.0547258 1.31287 0)
(0.0717781 1.37562 0)
(-0.0103748 2.09141 -9.76128e-23)
(-0.00278307 2.05715 0)
(-0.0152734 1.82502 0)
(0.937982 -0.00773097 0)
(0.856817 -0.00810848 0)
(0.862698 0.00586589 0)
(0.949104 -0.00791134 0)
(0.883609 -0.00735665 0)
(0.545922 1.16681 -1.09918e-19)
(0.595667 1.20612 0)
(0.40446 0.924743 1.57169e-20)
(0.34401 0.778986 0)
(0.907579 1.07058 -5.18868e-20)
(1.01436 0.875173 1.04155e-19)
(0.364251 1.38011 0)
(0.525762 1.35908 0)
(0.529568 1.31091 0)
(0.121483 0.208447 -1.30656e-19)
(0.363317 0.211615 0)
(0.326424 0.0997424 8.56066e-20)
(0.99037 0.929617 0)
(1.05907 0.782853 0)
(1.08093 0.7238 -7.72294e-20)
(1.10559 0.625914 0)
(1.14896 0.408319 2.33965e-20)
(0.957609 -0.0085164 0)
(0.96233 -0.0102614 0)
(0.901937 -0.00739205 0)
(0.984339 -0.00919435 0)
(0.974817 -0.00935403 0)
(0.937423 -0.00598281 0)
(1.00017 0.00214881 0)
(1.00087 0.00142472 0)
(0.999869 0.000909924 0)
(0.0267725 2.06111 1.92254e-19)
(0.0995743 1.74919 0)
(0.0127174 2.17171 3.04351e-19)
(0.04489 1.85226 -2.57943e-19)
(0.101124 1.21522 -9.30147e-20)
(0.0435674 1.09759 0)
(0.116962 1.05442 0)
(0.00626105 0.929975 0)
(0.0143886 0.754533 0)
(-0.00554665 2.22253 -6.07082e-22)
(0.0254498 1.9883 0)
(-0.00448943 2.22013 -2.91612e-20)
(0.026878 1.98799 5.38325e-20)
(0.00557404 0.904156 0)
(0.015794 0.879284 0)
(0.0166703 0.719327 0)
(0.00390524 0.824752 0)
(0.00113276 0.628552 0)
(0.935105 0.00909823 0)
(0.843245 -0.0153871 0)
(0.925488 -0.00117024 0)
(0.839201 -0.0117926 0)
(0.811188 0.00101633 0)
(0.901445 0.0195942 0)
(0.878312 0.023596 0)
(0.787986 -0.000411399 0)
(0.00398567 3.06428 -3.62996e-21)
(0.0167944 3.05761 0)
(0.0152652 2.96897 0)
(0.00888261 2.87625 0)
(0.962735 3.98282 0)
(1.30735 3.24627 4.479e-19)
(0.0691118 3.07653 0)
(-0.0246631 2.90776 0)
(0.0696498 1.45579 0)
(0.0158855 1.80178 0)
(0.0525342 1.66385 0)
(-0.0307055 2.55437 2.0014e-21)
(-0.0190844 2.27788 0)
(-0.0333811 2.4164 0)
(0.0240784 1.9159 1.02275e-21)
(-0.0118989 2.19145 1.87935e-20)
(-0.00864509 2.1606 1.38013e-20)
(0.00775036 1.88916 0)
(0.481376 0.118267 2.28308e-19)
(0.366798 0.010764 -2.24274e-19)
(0.271878 1.57106 0)
(0.24671 0.733896 -1.29867e-19)
(0.177363 1.66261 -4.30337e-19)
(0.203542 1.20154 4.31325e-19)
(0.901685 0.00589365 0)
(0.967347 0.0107283 0)
(0.974411 0.0106822 0)
(0.923189 0.00594227 0)
(-0.00893886 0.813869 0)
(-0.000585571 0.809721 0)
(-0.00617855 0.633292 0)
(0.255913 0.204442 2.76183e-19)
(0.214654 0.189652 -3.27282e-19)
(0.217161 0.154501 0)
(1.08177 0.0818763 1.29807e-20)
(1.06087 0.0360351 0)
(1.00071 0.038226 0)
(0.897129 -0.00672712 0)
(0.509111 0.0935154 0)
(0.545455 0.0788186 -1.03332e-18)
(0.397794 0.00614605 3.8729e-19)
(0.00914129 2.98111 3.16636e-19)
(-0.0332162 2.86659 1.87343e-20)
(0.00196464 3.04964 -7.66907e-21)
(0.0208202 3.04319 2.8289e-19)
(-0.015321 2.99629 1.3174e-20)
(-0.0128081 2.94949 -5.30896e-23)
(-0.0175704 3.01148 -2.41755e-19)
(0.0142508 3.0229 1.74012e-19)
(0.00674426 3.03678 -2.82626e-19)
(0.932443 -0.00233189 0)
(0.938645 -0.00331524 0)
(0.843555 -0.00764821 0)
(0.95642 0.0115239 0)
(0.942757 0.0128627 0)
(0.881173 0.00549548 0)
(0.917875 0.0158751 0)
(0.926306 0.0146853 0)
(0.838285 0.00324415 0)
(0.76001 1.4331 1.6956e-20)
(0.802923 1.52496 0)
(0.219069 0.352559 3.23505e-20)
(0.246771 0.714982 2.58416e-19)
(0.29079 0.769215 -1.54545e-19)
(0.303918 0.558473 3.00525e-19)
(0.337166 0.813845 6.79693e-19)
(0.135344 0.238491 1.54468e-19)
(0.411263 0.183844 3.21029e-19)
(0.389747 0.201618 8.35102e-20)
(0.339336 0.078263 1.5995e-19)
(1.14179 0.464986 1.46998e-21)
(1.15313 0.262929 -9.52544e-22)
(0.00704901 2.22245 1.19488e-19)
(0.0441008 1.91975 0)
(0.963149 0.0298012 0)
(0.937517 0.012185 0)
(0.863701 -0.0181165 0)
(0.0113295 3.07449 0)
(0.0206321 2.94391 5.16408e-19)
(0.0171667 2.95632 0)
(0.00657806 2.85057 -5.14744e-19)
(0.00558443 3.09108 1.22262e-19)
(0.00585858 3.0817 0)
(0.888221 1.82883 -6.65911e-20)
(1.27229 2.37993 1.11462e-19)
(0.868479 1.93298 -4.70798e-19)
(0.0203948 2.98259 -2.76778e-19)
(0.0362072 3.00305 0)
(-0.0330561 2.88055 0)
(-0.0117657 2.19511 -6.6374e-21)
(-0.0117825 2.20853 -3.66494e-20)
(0.0308275 1.96358 -1.40666e-21)
(0.277475 1.38699 4.24533e-19)
(0.200375 0.529622 -2.88993e-19)
(0.0527425 1.98875 3.26151e-19)
(0.153618 1.88192 -3.90689e-19)
(0.149453 1.47817 4.06565e-20)
(0.00143269 3.11907 -7.59567e-19)
(0.0126879 3.11879 8.58384e-19)
(-0.0094594 2.98096 3.46881e-19)
(-0.00457212 2.97795 -3.29089e-19)
(-0.0213717 2.88164 -3.5348e-19)
(0.00773177 3.09975 -9.12286e-19)
(0.00132432 3.10468 9.1998e-19)
(0.292312 0.727053 0)
(0.258562 0.72563 -5.34275e-19)
(0.112012 0.247154 2.37956e-19)
(0.35264 0.934836 4.60092e-19)
(0.183826 0.277747 -7.09981e-19)
(1.15751 0.172122 3.57255e-20)
(1.15658 0.312206 0)
(1.14221 0.123357 -1.33873e-20)
(-0.00232836 2.23647 -8.79876e-22)
(-0.00128555 2.23088 0)
(0.0285021 1.96004 0)
(0.351336 1.29118 -1.52143e-19)
(0.3761 1.13019 -3.30396e-19)
(0.188009 0.368827 5.8787e-19)
(1.00553 -0.0111824 0)
(1.00751 -0.00744135 2.19059e-19)
(0.0420502 1.29032 0)
(0.0112951 1.22202 0)
(1.00198 0.00344838 7.97499e-22)
(1.0038 0.0100422 4.43086e-19)
(-0.0282471 2.54914 -2.63072e-21)
(-0.0287798 2.58583 0)
(0.0346823 3.17795 1.98955e-19)
(0.387672 3.4817 0)
(1.15974 0.642934 -3.40748e-20)
(1.01323 0.0135707 -7.65764e-22)
(1.02121 -0.0107342 0)
(1.00175 0.000106139 2.62075e-23)
(0.099828 1.34901 0)
(0.155115 2.57364 0)
(0.0272623 1.28443 0)
(0.00317435 2.63068 3.17167e-20)
(-0.0194765 2.58667 1.97902e-20)
(1.00225 0.0289946 9.84732e-22)
(1.06167 0.0031104 0)
(1.0928 0.0217057 0)
(0.0114008 1.82597 0)
(-0.0266532 2.58563 0)
(0.0224802 1.27759 0)
(0.309039 1.46326 -5.48999e-20)
(1.01124 -0.00989568 0)
(1.00939 -0.0153693 0)
(1.0024 0.000628594 2.78214e-19)
(1.00538 -0.00478894 -3.30293e-19)
(1.0012 -0.00105313 0)
(0.0260828 1.54209 0)
(0.0456592 1.38953 0)
(0.0510857 1.48566 0)
(0.0368955 1.26542 0)
(0.0211023 1.19966 0)
(0.0177909 1.17919 0)
(1.03421 -0.0070823 0)
(1.02093 0.016167 -3.6396e-22)
(0.805064 1.25474 8.41248e-20)
(1.00222 0.000375741 -2.77557e-19)
(1.00402 0.00534077 3.29966e-19)
(1.00117 0.00212213 0)
(1.01345 0.0105411 2.75415e-19)
(1.00856 0.00868453 -3.33432e-19)
(1.00927 0.0156728 0)
(-0.0302247 2.61282 0)
(-0.0289219 2.59533 2.41648e-21)
(-0.0303101 2.606 -9.20348e-22)
(1.22779 0.244102 2.76633e-19)
(1.1549 0.078679 0)
(0.0446615 3.07526 -4.24277e-19)
(0.065277 2.85214 -3.0223e-20)
(0.142808 3.19488 6.47978e-19)
(0.140364 3.22476 -8.96703e-20)
(0.133096 3.23539 0)
(0.0200767 3.13725 1.12747e-19)
(0.07624 3.16059 4.13784e-19)
(0.0685157 3.18565 -2.14479e-19)
(0.0239687 3.1289 0)
(0.656955 0.292237 0)
(0.570943 0.34317 0)
(1.10405 0.670866 8.51987e-20)
(1.13208 0.803621 -8.8928e-20)
(1.17483 0.553032 0)
(1.22255 0.498085 0)
(1.01634 0.0136637 -5.20168e-19)
(1.01512 0.0148393 6.52025e-19)
(1.02513 -0.0101699 0)
(1.02314 -0.0124265 0)
(1.00639 0.00257558 0)
(1.01014 0.00360699 0)
(1.00463 0.0018652 0)
(1.00982 0.00603979 0)
(1.00804 0.00629776 0)
(1.00444 0.00443235 0)
(0.0877823 1.34435 0)
(0.0846678 1.31741 0)
(0.119925 1.38165 0)
(0.139441 1.39503 0)
(0.148663 2.59698 0)
(0.189204 2.66002 -1.96777e-19)
(0.100882 2.65558 0)
(0.0920179 2.65691 9.78555e-20)
(0.0432429 2.68736 -8.51153e-20)
(0.0262477 1.30785 0)
(0.021561 1.23858 0)
(0.0324908 1.31403 0)
(0.0255713 1.25399 0)
(0.000129155 1.98356 -1.70005e-20)
(-0.0218665 2.6149 1.35537e-20)
(-0.0113377 2.67331 2.83517e-20)
(-0.0168132 2.6902 0)
(-0.0253895 2.62093 -4.39097e-20)
(-0.0257212 2.61407 -2.28969e-20)
(0.0109684 1.98421 1.42682e-20)
(-0.0131111 2.40937 -1.75422e-20)
(-0.0162853 2.42904 -3.36974e-20)
(1.01179 0.0365611 5.22974e-19)
(1.00765 0.0172673 -6.50412e-19)
(1.00323 0.0427091 -5.26633e-19)
(0.983117 0.0235344 6.68605e-19)
(1.0628 0.00732727 0)
(1.04823 -0.00897171 0)
(1.09173 0.0304883 0)
(1.07234 0.0112668 0)
(1.07031 -0.000138114 0)
(1.13277 0.0803722 0)
(1.10719 0.0411734 0)
(1.1121 0.0273624 0)
(-0.0287202 2.44395 -2.01445e-21)
(-0.00613365 2.03507 0)
(-0.0158425 2.23935 0)
(-0.0280241 2.60738 5.56865e-21)
(-0.023582 2.61885 -3.02873e-22)
(0.00471278 1.59354 1.61862e-20)
(0.0229263 1.56245 -1.62825e-20)
(0.0280273 1.39576 0)
(0.0416459 1.41067 0)
(0.0321525 1.41175 0)
(0.00307595 1.28905 0)
(0.00824875 1.20356 0)
(0.378288 1.48204 8.57561e-20)
(0.428628 1.48398 5.00045e-20)
(0.593454 2.43753 -1.03797e-19)
(0.404417 2.53627 3.04e-19)
(0.347148 2.06707 3.51603e-20)
(1.02109 -0.00818556 0)
(1.01545 -0.00990475 0)
(1.01495 -0.0160815 0)
(1.00736 -0.00126959 0)
(1.00493 -0.00106291 0)
(1.00771 -0.00465836 0)
(1.00918 -0.00377012 0)
(1.01408 -0.00451053 0)
(1.02162 0.0162389 5.11282e-19)
(1.01826 0.0162126 -6.49159e-19)
(1.02194 0.0181372 -5.11709e-19)
(1.01977 0.0169225 6.42621e-19)
(0.770567 1.30576 0)
(0.709885 1.35744 8.0012e-20)
(0.873081 1.21453 2.3015e-20)
(0.932727 1.1536 -3.06044e-20)
(1.15669 2.60335 1.45575e-19)
(0.812121 0.111479 2.53571e-19)
(1.15047 0.106747 0)
(1.20347 0.187177 -2.21669e-19)
(1.19548 0.140749 -9.38453e-21)
(1.00198 0.143746 0)
(0.157992 2.96025 2.26501e-19)
(0.114298 2.86667 -5.68988e-19)
(0.028599 2.3799 3.54066e-19)
(0.095396 -0.00251857 -1.5069e-19)
(0.335686 3.42345 -7.97388e-20)
(0.195868 3.32137 0)
(0.227278 3.35629 1.03772e-19)
(0.256031 3.04078 -7.35189e-19)
(0.360021 3.20164 0)
(0.00739978 3.12046 2.14506e-20)
(0.0167552 3.12929 -2.55691e-19)
(0.015752 3.12514 3.74995e-19)
(0.0358662 3.13968 0)
(0.0340113 3.15033 0)
(1.19029 2.64366 0)
(0.544238 0.840802 -2.22445e-19)
(1.0584 0.975609 1.36697e-20)
(0.963137 1.06989 0)
(0.814155 0.951318 -5.41543e-20)
(1.04607 0.881675 1.07105e-20)
(0.350554 0.398183 -4.01237e-19)
(0.693256 0.322027 -8.38713e-21)
(0.661148 0.235723 1.81611e-19)
(0.584201 0.388589 1.34105e-20)
(0.501731 0.339905 -5.4138e-19)
(0.664598 0.342889 0)
(0.710873 0.420592 3.06301e-19)
(0.717652 0.414726 0)
(0.61986 0.378766 0)
(0.597139 0.286843 0)
(0.798712 0.609342 1.84361e-19)
(1.21368 0.272981 -2.38546e-19)
(1.21745 0.404442 0)
(1.24153 0.341963 0)
(0.743494 0.190195 2.70365e-19)
(0.84929 0.539461 -1.68704e-19)
(0.748215 0.510691 2.99506e-19)
(0.952969 0.419931 -3.29514e-19)
(1.02005 0.0147881 3.47993e-19)
(1.01815 0.0144132 -3.50302e-19)
(1.01592 0.0162957 0)
(1.03577 -0.0063926 0)
(1.02955 -0.00879016 -3.28538e-19)
(1.02737 -0.0127275 3.25949e-19)
(1.02506 0.00978442 0)
(1.02381 0.0132259 0)
(1.01121 0.00397773 0)
(1.01432 0.00890243 0)
(1.01472 0.0040702 0)
(1.01386 0.00297068 0)
(0.0548844 1.32541 0)
(0.0616589 1.28568 0)
(0.143131 1.35001 -1.96376e-20)
(0.277908 1.46076 2.76702e-20)
(0.164371 1.43042 5.86682e-20)
(0.204059 1.44107 -9.56551e-20)
(0.166281 1.37506 0)
(0.131539 1.59265 -4.41847e-20)
(0.111398 1.55929 0)
(0.350323 2.01433 -5.08141e-20)
(0.350459 2.36096 2.67018e-19)
(0.19227 1.44493 3.86358e-20)
(0.252643 1.3704 -4.07601e-22)
(0.200613 1.35851 3.27774e-22)
(0.262357 1.31753 -6.4084e-20)
(0.231626 1.57674 0)
(0.26059 1.60676 6.37444e-20)
(0.0323452 2.26961 -2.07805e-20)
(0.0434264 2.67638 0)
(0.0644216 2.40844 7.82298e-20)
(0.0588828 2.43226 0)
(0.0716955 2.66892 -1.08867e-19)
(0.0538525 2.70406 0)
(0.0302222 1.39834 -1.00859e-20)
(0.0353672 1.44917 0)
(0.0331846 1.36668 0)
(0.0273208 1.3682 1.13546e-20)
(-0.000385098 2.65983 -9.49938e-21)
(0.0292145 2.70452 9.77973e-20)
(0.0120775 2.7283 7.26836e-22)
(0.00181664 1.8324 1.4467e-20)
(-0.00632897 1.67577 6.84146e-21)
(0.0334753 1.28489 0)
(0.0132542 1.21896 0)
(0.0525379 1.56311 1.54774e-20)
(0.0292319 1.43362 1.47119e-20)
(0.04015 1.50032 -1.80212e-20)
(0.0411704 1.58785 0)
(-0.0351337 2.28748 1.01134e-20)
(-0.0432996 2.55885 -5.22513e-21)
(-0.0171378 2.45651 -3.56112e-21)
(-0.0087581 1.84957 -1.74785e-20)
(-0.0293882 2.50614 -6.62816e-21)
(-0.0243619 2.45197 2.84288e-20)
(1.01996 0.0209936 -3.4575e-19)
(1.01623 0.0265354 3.47506e-19)
(1.01521 0.0167701 0)
(1.01163 0.0683907 4.83951e-19)
(0.991397 0.0580328 -5.42357e-19)
(0.951875 0.040236 6.07817e-19)
(1.01482 0.102278 -6.46441e-20)
(1.04184 -0.00618775 0)
(1.05004 -0.00191997 3.15338e-19)
(1.0384 -0.010472 -3.14631e-19)
(1.06958 0.0408608 -1.86498e-20)
(1.0632 0.0212784 1.60568e-19)
(1.06416 0.0514975 0)
(1.05132 0.0473261 -5.75889e-20)
(1.03348 0.0404554 0)
(1.02625 0.0366051 0)
(1.02754 0.0133404 0)
(1.02419 0.0159322 0)
(1.03961 0.031108 1.18331e-19)
(1.0393 0.0255319 -2.60846e-19)
(1.04936 0.0310043 -1.26091e-19)
(1.04892 0.0310677 -1.38563e-19)
(1.06772 0.0614058 2.71437e-19)
(1.09174 0.049592 0)
(1.10252 0.0914907 0)
(-0.0354843 2.28543 -5.69274e-21)
(-0.0134931 2.03319 -2.71147e-21)
(-0.0240464 2.02275 0)
(-0.0263824 2.45764 5.91972e-21)
(-0.0186347 2.40791 4.55407e-21)
(-0.03606 2.48394 -1.18531e-21)
(-0.0250481 2.62824 1.99229e-20)
(-0.0312971 2.56993 -1.58938e-21)
(-0.026585 2.52192 6.15404e-21)
(-0.0214817 2.62363 -7.8839e-21)
(-0.0275248 2.62415 1.02926e-20)
(-0.000836568 1.49585 -8.73278e-23)
(0.0125376 1.62783 1.45804e-20)
(0.361537 1.42231 -3.27426e-20)
(0.359185 1.36903 3.43451e-20)
(0.652193 1.40909 -7.73193e-20)
(0.521762 1.47443 -4.84271e-20)
(0.58345 1.4435 0)
(0.581908 2.41522 9.84305e-20)
(0.653686 2.41239 1.49022e-19)
(0.404409 2.51286 3.69077e-20)
(0.40711 2.54694 -2.73218e-19)
(0.520625 2.49564 2.64315e-19)
(0.542913 2.45366 0)
(0.479673 2.5096 -2.45197e-19)
(0.238147 2.58601 5.17479e-19)
(0.347617 2.56587 -3.42397e-20)
(0.28195 2.64939 -7.01784e-19)
(0.931721 2.37522 3.34778e-19)
(0.826033 2.38195 0)
(1.01091 0.0002164 1.12178e-20)
(1.01521 -0.00550948 -9.29421e-21)
(1.01756 -0.0035212 -1.67479e-19)
(1.01482 -0.00094219 1.69287e-19)
(1.01218 0.000980799 0)
(0.636095 1.27392 0)
(0.644496 1.16991 0)
(0.744944 1.07376 0)
(0.644013 1.128 0)
(1.18506 2.61368 2.68558e-20)
(1.07202 2.36115 0)
(0.851032 2.18156 1.7695e-21)
(0.821249 2.4461 0)
(0.921367 2.53786 -1.8726e-19)
(0.958608 2.49762 1.2166e-19)
(0.815105 0.159421 0)
(0.785525 0.132656 6.87943e-20)
(0.926217 0.141897 4.04315e-19)
(0.8375 0.135075 -1.50624e-19)
(0.819016 0.0834509 -4.64688e-19)
(1.07112 0.22401 -4.09518e-19)
(0.998277 0.289703 -6.22802e-21)
(0.92259 0.274831 3.76007e-19)
(1.00362 0.214872 3.15907e-19)
(0.954545 0.181622 -5.37949e-19)
(0.92185 0.185405 6.70439e-20)
(0.950757 0.237998 -1.44423e-19)
(0.93349 0.206744 0)
(0.992517 0.178122 2.65465e-19)
(1.04407 0.178798 0)
(1.04228 0.207755 0)
(1.09906 0.114947 1.27903e-19)
(1.07382 0.168397 -5.9289e-21)
(1.0687 0.224801 -6.87163e-20)
(1.10182 0.19627 0)
(1.02233 0.0439328 2.68163e-19)
(1.04302 0.0563999 3.3233e-19)
(1.03507 0.0425195 -2.63349e-19)
(1.04267 0.0632239 -2.23284e-19)
(1.01828 0.0706654 -3.41382e-19)
(0.989009 0.148542 0)
(1.00058 0.100267 0)
(0.970117 0.0660713 -2.15883e-19)
(0.920056 0.0865517 8.42003e-20)
(1.0379 0.0982833 3.09241e-19)
(1.06803 0.114693 -3.6689e-19)
(1.07307 0.145364 3.24286e-19)
(1.02825 0.140553 0)
(1.07144 0.105401 0)
(1.05592 0.0841785 -1.49224e-19)
(1.04477 0.0926689 -2.52956e-19)
(0.57589 1.07921 6.58513e-20)
(0.62162 1.39244 -2.98311e-20)
(1.1601 2.74059 -1.05149e-19)
(1.23687 3.07604 7.53407e-22)
(1.24914 2.71186 -7.93623e-20)
(1.27929 2.71036 -2.49866e-20)
(1.1661 2.35258 8.09445e-21)
(1.22528 2.97013 -6.37366e-20)
(1.24676 2.93915 1.3414e-19)
(1.24261 3.23149 -7.61942e-20)
(1.36526 2.96839 8.8083e-20)
(1.30391 2.89245 0)
(0.549806 0.845517 -2.1257e-20)
(0.115726 1.24749 2.56544e-19)
(0.552558 0.452947 2.62231e-19)
(0.361778 0.194987 2.84445e-19)
(0.523267 0.387654 3.06793e-19)
(0.555684 0.467602 -5.04425e-19)
(0.547291 0.485963 4.12978e-19)
(0.492218 0.402681 -1.56261e-19)
(0.409734 0.328742 3.51999e-19)
(0.744423 0.249682 -1.54476e-19)
(0.710508 0.279836 0)
(0.693624 0.205404 3.62634e-21)
(0.733891 0.51402 1.6094e-19)
(0.708945 0.47848 -5.88679e-19)
(0.611122 0.476416 5.36642e-21)
(0.626298 0.46118 0)
(0.667546 0.733221 1.74126e-19)
(0.835912 0.779099 1.72996e-19)
(0.750308 0.860319 -2.01417e-19)
(0.870458 0.805209 -7.03442e-20)
(0.895029 0.837486 -1.88249e-20)
(0.901346 0.839389 1.93392e-20)
(0.847393 0.637022 -3.07309e-19)
(0.917157 0.70857 6.55609e-20)
(0.969797 0.714562 0)
(0.952843 0.682563 -9.34307e-20)
(1.0244 0.311446 9.55947e-20)
(1.12069 0.283175 1.38679e-19)
(1.05862 0.258005 1.64171e-19)
(1.01782 0.354818 -1.9273e-19)
(1.05589 0.417517 0)
(1.09642 0.399833 0)
(0.914956 0.344317 2.93988e-21)
(0.842892 0.282316 0)
(0.875883 0.277679 1.75524e-19)
(0.91249 0.281079 -3.23583e-21)
(0.942263 0.42106 9.1931e-19)
(0.900268 0.484218 2.39924e-19)
(0.902492 0.447161 -2.53909e-19)
(0.819124 0.430817 2.72343e-19)
(0.804315 0.431159 1.63401e-19)
(0.771268 0.415516 -1.59085e-19)
(1.02743 -0.000378785 2.77366e-19)
(1.0199 -6.4381e-05 0)
(1.01853 0.000779695 1.83161e-19)
(1.02115 -0.00210406 -4.1297e-19)
(1.02216 0.00439612 2.01082e-19)
(1.02045 0.0111603 -4.23084e-19)
(1.0215 0.0104609 0)
(1.02108 0.0104683 -8.73852e-20)
(1.01592 0.00777018 2.18894e-19)
(1.01686 0.0102822 -1.10735e-19)
(1.01753 0.00956709 8.15297e-20)
(0.0317226 1.30462 0)
(0.0348379 1.33977 0)
(0.0383146 1.30463 0)
(0.0409964 1.26671 0)
(0.0651184 1.36839 2.28894e-20)
(0.0729183 1.33877 -3.17759e-21)
(0.116737 1.49255 -1.76709e-20)
(0.0879943 1.34587 1.11663e-20)
(0.0333874 1.43786 -2.72391e-20)
(0.0368962 1.42998 2.09255e-20)
(0.0590072 1.35029 -1.31141e-21)
(0.0539835 1.35078 -1.21634e-20)
(0.0455817 1.32714 -1.95592e-21)
(0.0397084 1.34852 -2.9199e-21)
(0.109952 2.37745 -8.43884e-20)
(0.0934252 2.42528 0)
(0.170392 2.06901 5.24862e-20)
(0.115527 1.70894 2.37303e-20)
(0.235906 2.05538 -4.21353e-20)
(0.207743 2.4411 0)
(0.270719 2.39502 -2.6466e-19)
(0.307338 2.39336 1.8717e-19)
(0.225371 2.00884 -1.22248e-19)
(0.152532 2.17075 8.0752e-20)
(0.154248 2.28771 0)
(0.0161237 1.87856 -2.68165e-20)
(-0.00285837 2.40831 -5.0173e-20)
(0.00353053 2.15979 0)
(0.0124253 2.46702 -5.73097e-21)
(0.0261818 2.31185 1.80598e-20)
(0.0213681 1.38379 1.62043e-21)
(0.0188644 1.36946 -2.55461e-20)
(0.0200489 1.37527 7.05074e-21)
(0.0235492 1.37284 8.65218e-21)
(0.0293843 1.40269 0)
(0.0149999 1.35748 0)
(0.0056065 1.27389 9.72276e-21)
(0.0113261 1.34612 -3.38399e-21)
(0.0161335 1.34592 0)
(0.0117988 1.27586 6.20656e-21)
(0.0099894 1.1936 -1.29668e-20)
(1.03955 0.0103443 0)
(1.04543 0.00693872 -2.93655e-20)
(1.03856 0.0203467 -2.10435e-19)
(1.04754 0.0191939 0)
(1.051 0.0190143 0)
(1.0365 0.010663 -2.7828e-21)
(1.03134 0.0102527 3.38773e-19)
(1.03179 0.0158425 4.14444e-19)
(1.02573 0.0199825 0)
(1.02338 0.0203266 0)
(1.03497 0.0247001 2.10764e-19)
(1.02666 0.0256081 0)
(1.0248 0.0254525 0)
(-0.0278411 2.02784 0)
(0.00541765 1.64775 -3.67172e-21)
(-0.0036387 1.77068 -9.91968e-21)
(0.00644509 1.35978 0)
(-0.0114714 1.55781 7.59801e-21)
(-0.000667903 1.44959 -5.55083e-21)
(0.01064 1.37285 0)
(0.379822 1.67534 0)
(0.364231 1.29185 -6.35467e-20)
(0.309331 1.34059 0)
(0.419423 1.28748 4.35202e-20)
(0.467396 1.45299 0)
(0.446933 1.39857 -7.4539e-21)
(1.02997 2.68356 -7.15689e-21)
(0.95747 2.4102 -4.09096e-19)
(0.905645 2.19092 4.69609e-19)
(0.839035 2.37424 1.15464e-19)
(0.839365 2.49783 0)
(0.911818 2.49147 0)
(0.913942 2.36991 0)
(0.893838 2.3555 -4.22168e-19)
(0.684497 2.46134 -1.81972e-19)
(0.795399 2.45769 -4.37604e-20)
(0.807484 2.4273 3.46684e-20)
(0.685582 2.38858 0)
(0.791057 2.38713 0)
(0.746664 2.39716 -1.60403e-19)
(0.764229 2.49302 0)
(0.614482 1.10533 0)
(0.48394 0.922624 -2.1691e-19)
(0.563996 0.950023 -1.40173e-20)
(0.523287 1.0523 0)
(0.526408 1.00414 3.28392e-19)
(0.773475 0.887621 -5.90136e-20)
(0.778603 1.00977 0)
(0.751779 0.956143 8.93149e-20)
(0.63666 1.04236 0)
(0.645483 0.945953 0)
(1.16556 2.75568 -1.11191e-19)
(1.14243 2.82127 -5.26037e-20)
(0.938268 2.3354 6.42738e-20)
(0.899003 2.31409 -4.17794e-20)
(1.12812 2.7262 0)
(1.08047 2.69472 5.26454e-20)
(1.08722 2.47825 -1.44029e-19)
(0.9789 2.23162 -1.37056e-20)
(0.492355 1.35336 0)
(0.501494 1.07007 -5.77078e-20)
(0.559083 1.14569 0)
(0.865557 0.220393 0)
(0.789758 0.172181 0)
(0.732166 0.136613 0)
(0.859971 0.223403 -2.77409e-19)
(0.76197 0.211131 1.62536e-19)
(0.934775 0.0739897 -1.74961e-19)
(0.950193 0.121283 0)
(0.927797 0.129543 7.48658e-20)
(0.867788 0.107956 3.01375e-19)
(0.84495 0.0682322 -1.89138e-19)
(1.17373 3.36581 -3.02195e-19)
(1.22548 3.28635 0)
(1.13962 3.3838 -5.95187e-19)
(0.638779 3.54252 5.20077e-19)
(0.850698 3.10867 1.60524e-20)
(0.511135 0.853424 2.59653e-19)
(0.419205 0.846233 0)
(0.326942 0.501313 -6.42579e-20)
(0.456515 0.680345 3.64118e-19)
(0.549105 0.465847 -8.95538e-20)
(0.520914 0.517038 1.00917e-19)
(0.659014 0.529045 2.20316e-19)
(0.692753 0.546352 0)
(0.650428 0.608443 0)
(0.605545 0.545203 0)
(0.974803 0.598153 4.85243e-20)
(0.902807 0.532702 -2.31646e-19)
(0.925027 0.565964 1.81509e-19)
(0.960349 0.504623 -1.80577e-19)
(1.0698 0.476723 0)
(1.06137 0.560174 -4.66061e-20)
(0.843683 0.38562 -3.70987e-19)
(0.848542 0.372419 -4.51359e-19)
(0.795529 0.375403 2.87696e-19)
(0.793211 0.350992 -2.92995e-19)
(0.842469 0.30727 -2.29794e-19)
(0.792925 0.306876 2.8281e-19)
(1.02663 0.00569972 -2.15001e-19)
(1.02631 0.00605616 4.45357e-19)
(1.02954 -0.000624795 2.68979e-19)
(1.03325 0.000528433 -3.25218e-19)
(1.03296 0.00732667 0)
(1.02997 0.0082301 -5.32513e-19)
(0.0631246 1.63552 1.33121e-20)
(0.0447108 1.56472 0)
(0.0880644 1.68384 9.64539e-20)
(0.0967262 1.66788 -8.6313e-20)
(0.0891343 1.51155 3.30116e-20)
(0.0875824 1.49587 0)
(0.00902661 1.6801 0)
(-0.00188802 1.48365 -4.78138e-21)
(-0.000410753 1.42328 4.29359e-21)
(-0.00626232 1.54664 1.76193e-21)
(0.00035616 1.88697 -8.36962e-21)
(-0.018139 1.93755 5.37146e-21)
(0.493621 1.37027 -1.31597e-19)
(0.488699 1.37738 1.4155e-19)
(0.443057 1.28573 -3.21064e-20)
(0.431356 1.28783 4.37157e-21)
(0.623751 1.29616 0)
(0.543707 1.38334 2.44626e-20)
(0.560349 1.39464 -2.37351e-20)
(0.453885 1.27202 3.11413e-20)
(0.507708 1.22903 0)
(0.552718 1.19023 0)
(0.646293 2.4191 2.73085e-19)
(0.669481 2.46118 5.47052e-19)
(0.708434 2.4752 -3.75284e-19)
(0.607689 2.45663 -8.81588e-20)
(0.561906 2.54292 1.278e-19)
(0.523369 2.52422 -3.2966e-19)
(0.972895 2.37588 -2.61693e-19)
(1.00927 2.38679 0)
(0.91572 2.16964 -3.05247e-19)
(1.05068 2.67515 0)
(1.05362 2.66169 0)
(0.605732 2.25386 -7.58045e-20)
(1.02987 3.15703 4.10683e-20)
(0.896651 3.01707 1.5849e-20)
(0.286333 0.90928 0)
(0.325852 0.752312 -1.3648e-19)
(0.4663 0.720628 -1.37418e-19)
(0.40193 1.98103 0)
(0.478815 2.78579 -1.13646e-20)
(0.434677 2.5693 0)
(0.682039 0.670675 -3.67749e-19)
(0.767603 0.68382 4.96805e-19)
(0.795448 0.618871 -4.88228e-19)
(0.673871 0.63594 -4.7474e-20)
(0.723255 0.593079 -1.95304e-19)
(1.0149 2.7629 -3.10167e-20)
(1.04616 2.833 -5.95955e-20)
(0.656768 2.13831 3.01567e-19)
(0.584092 1.71498 -2.0836e-19)
(0.710666 1.90746 -1.85027e-19)
(0.995367 2.4689 -4.62826e-20)
(0.996893 2.45679 1.16751e-19)
(0.668543 1.87379 1.04055e-20)
(0.459931 1.33646 6.74906e-20)
)
;

boundaryField
{
    wall-4
    {
        type            noSlip;
    }
    velocity-inlet-5
    {
        type            fixedValue;
        value           uniform (1 0 0);
    }
    velocity-inlet-6
    {
        type            fixedValue;
        value           uniform (0 3 0);
    }
    pressure-outlet-7
    {
        type            zeroGradient;
    }
    wall-8
    {
        type            noSlip;
    }
    frontAndBackPlanes
    {
        type            empty;
    }
}


// ************************************************************************* //
