/*--------------------------------*- C++ -*----------------------------------*\
| =========                 |                                                 |
| \\      /  F ield         | OpenFOAM: The Open Source CFD Toolbox           |
|  \\    /   O peration     | Version:  4.0                                   |
|   \\  /    A nd           | Web:      www.OpenFOAM.org                      |
|    \\/     M anipulation  |                                                 |
\*---------------------------------------------------------------------------*/
FoamFile
{
    version     2.0;
    format      ascii;
    class       volScalarField;
    location    "31";
    object      p;
}
// * * * * * * * * * * * * * * * * * * * * * * * * * * * * * * * * * * * * * //

dimensions      [0 2 -2 0 0 0 0];

internalField   nonuniform List<scalar> 
918
(
0.454094
1.10758
0.00596425
0.453363
-0.0350625
1.0746
-0.605733
0.625733
0.434198
-0.188826
-0.133269
0.427776
0.935286
0.700094
-1.23252
-0.0247934
0.577128
-0.483471
0.433191
-0.220299
0.659142
0.44082
0.443858
0.43445
0.494203
0.681312
0.815946
-0.0680558
-0.00314055
-0.0504233
-0.0918534
-0.157014
-0.165925
0.958244
1.00932
1.03201
0.402744
0.229545
-0.464112
-0.53601
-0.52748
-0.654477
0.617695
0.620159
-0.271228
0.626015
0.636202
0.421479
0.433562
0.434465
0.435575
0.43451
0.435917
0.316578
-0.19776
-0.225768
-0.166812
-0.160717
-0.00795742
-0.130193
-0.134806
-0.136527
-0.147738
0.354927
0.424148
0.421298
0.432398
0.43966
1.04712
1.01905
1.04518
0.958858
0.97534
0.91327
0.885782
0.721673
0.743416
0.684231
0.671918
-1.67087
-2.63474
-0.635909
-0.381348
-0.0376722
0.0183689
-0.0144593
0.567439
0.568314
0.577694
0.590014
0.97535
-0.480463
-0.610064
0.433332
0.432119
0.440512
0.441199
0.437208
0.436301
-0.232175
-0.218924
-0.135261
-0.216333
-0.186978
0.647517
0.646406
0.434997
0.432021
0.447228
0.4671
0.459239
0.190117
0.499631
0.515204
0.501891
0.668839
0.664787
0.672981
0.789543
0.752253
0.853139
0.87653
-0.0396066
-0.0301953
-0.0251191
-0.112117
-0.0817752
0.398717
0.391499
0.417228
0.406079
0.40848
0.144636
0.0086898
0.316144
0.341476
-0.373972
-0.437681
-0.541206
-0.558961
-0.673515
0.494251
0.606003
0.606849
-0.290655
-0.210448
-0.349038
-0.136865
-0.199198
0.411966
0.418796
0.413893
0.429215
0.423729
0.42566
0.437783
0.434877
0.436426
0.379044
0.501676
0.242609
0.209638
-0.342902
-0.245706
-0.342868
-0.15045
-0.144882
-0.00471167
0.0152082
-0.0134711
-0.0234651
-0.141667
-0.137609
-0.141686
-0.161513
-0.170104
0.347693
0.337107
0.36679
0.373749
0.415061
0.416064
0.418939
0.4176
0.836633
0.859092
0.866456
0.840166
-3.63741
-6.44406
-0.0516827
0.0878153
-0.0844902
-0.0828959
-0.0409401
-0.0697304
-0.0320559
-0.0133848
-0.0184841
-0.031382
-0.00393454
-0.00341468
0.552656
0.552774
0.891966
0.887903
0.876741
0.827039
0.421346
0.42349
0.429053
0.424902
-0.191836
-0.208816
-0.19891
0.634151
0.641532
0.641377
0.154206
0.0704654
0.237638
0.26481
0.5383
0.520807
0.535527
0.564293
0.599627
0.884061
0.902232
0.900488
0.908775
0.952821
0.96923
0.934556
0.379189
0.388557
0.383824
0.420508
0.418158
0.41913
0.41437
0.416027
0.413735
-0.144027
-0.528848
0.401245
0.417056
0.390504
0.400473
0.570057
0.641085
0.589146
0.597494
0.598383
-0.0706694
-0.128716
0.164967
0.134002
0.290783
0.325279
0.305434
0.807812
0.768056
0.818111
0.791651
0.752971
0.77928
-0.480849
-1.99675
-1.10691
0.443852
0.254662
0.343611
-0.0342808
-0.0358644
-0.0250377
0.878751
0.95845
0.558963
0.721258
0.732757
0.638698
0.669481
0.725372
0.648168
0.684708
0.721866
0.703188
0.452058
0.413222
0.413765
0.709047
0.764381
0.0435435
-0.0100016
-0.0547807
0.0322564
0.0909992
0.0651191
0.925865
0.822146
0.89487
0.431759
0.432444
-0.126766
-0.158742
0.436547
0.436561
-0.121321
-0.197144
0.325519
-0.94226
0.0318306
0.424978
0.41534
0.432202
-0.17888
0.271681
-0.12351
-0.0130947
-0.0547527
0.425211
0.364354
0.326307
-0.196612
-0.067217
-0.234242
-0.305061
0.42943
0.427744
0.431669
0.432687
0.433335
-0.233955
-0.202569
-0.16318
-0.288514
-0.227478
-0.237662
0.397112
0.413887
-0.258873
0.431796
0.433934
0.433747
0.426898
0.432541
0.430796
-0.104796
-0.161645
-0.11381
0.140285
0.25739
0.573157
0.669417
0.537925
0.311122
0.0718187
0.472804
0.538586
0.440597
0.599583
0.599077
0.616763
0.0940091
-0.053539
0.10258
0.0464473
0.422861
0.421514
0.413602
0.410734
0.427079
0.425173
0.429731
0.426675
0.429625
0.431068
-0.133233
-0.149572
-0.175369
-0.233518
0.231868
0.492121
0.165218
0.196793
0.070852
-0.118796
-0.124389
-0.124571
-0.135479
-0.0776182
-0.0766294
-0.0246004
-0.0092902
-0.0316339
-0.049631
-0.0783011
-0.0859033
-0.0948277
0.419077
0.417981
0.424027
0.431624
0.373417
0.377441
0.344057
0.363623
0.349457
0.291544
0.325589
0.300601
-0.118117
-0.195704
-0.106646
-0.0937922
-0.0415029
-0.282056
-0.306888
-0.328848
-0.260221
-0.274949
-0.22079
-0.221179
-0.264995
-0.378611
0.878379
0.820194
0.0154315
0.418673
0.425041
0.421875
0.426604
0.429708
0.430601
0.42835
0.424868
0.414517
0.416331
0.412665
0.413144
-0.199207
-0.336527
-0.160226
-0.227391
0.0378176
0.530847
0.270919
0.21203
0.205812
0.425471
0.820631
0.617391
0.616095
0.639831
-0.44631
-0.0497605
-0.379299
0.238883
0.061344
0.572666
0.622902
0.644235
0.591701
0.543197
-0.215226
0.443945
-0.146864
-0.102604
0.0890321
-0.0176078
0.616488
0.582096
0.587001
0.604069
0.622745
0.58774
0.56619
0.561198
0.600695
0.606395
0.39971
0.172939
0.128363
0.0902821
0.565943
0.441139
0.499477
0.413111
0.417727
0.420579
0.419152
0.401853
0.409003
0.404805
0.410412
0.413557
0.422804
0.423132
0.418589
0.420787
-0.137139
-0.143687
-0.11653
-0.229923
-0.217839
-0.273796
-0.159134
-0.0249435
-0.0568837
0.1312
0.237773
-0.0511949
-0.164235
-0.134332
-0.105123
0.0757692
0.101324
-0.0109459
0.0874665
0.0648939
0.051936
0.15265
0.162063
-0.110599
-0.107854
-0.119706
-0.118213
-0.0440681
0.0202453
0.0330256
-0.10232
-0.075439
-0.122924
-0.146058
-0.110365
-0.110047
-0.103174
-0.0711323
-0.234082
-0.143367
-0.115626
-0.111264
-0.0747668
-0.0822765
0.413116
0.414853
0.414723
0.422027
0.437716
0.45238
0.415041
0.395181
0.386352
0.389262
0.363657
0.373348
0.369912
0.38212
0.402012
0.410114
0.408619
0.411105
0.394435
0.396049
0.383657
0.386807
0.36401
0.345868
0.334553
-0.223378
-0.211693
-0.227796
-0.152066
-0.146434
-0.13889
-0.0569676
-0.0694714
-0.0680416
-0.0494674
-0.0482823
-0.30549
-0.293066
-0.176198
-0.0993186
-0.283382
-0.315359
-0.384354
0.78519
0.900217
0.711693
0.491097
0.497758
0.734005
0.82334
0.45703
0.6327
0.660708
0.466401
0.725393
0.42345
0.423017
0.420686
0.420157
0.421387
-0.112383
-0.0129847
-0.00133122
0.0520923
0.169745
0.284381
0.199336
0.0718148
0.206614
0.213172
0.525345
0.541685
0.487767
0.512042
0.509648
0.337614
0.414787
0.470191
0.423346
0.468621
0.490924
0.451645
0.482024
0.428254
0.385793
0.38456
0.330382
0.351261
0.329114
0.31131
0.413039
0.391147
0.401446
0.392078
0.411743
0.438326
0.43273
0.459196
0.470717
0.397369
0.357709
0.367192
0.395191
0.356217
0.369154
0.384629
0.11929
0.0191534
0.104531
-0.187895
-0.106683
-0.122435
-0.168987
-0.123518
0.162983
-0.536163
-0.509716
-1.14321
0.384759
0.851842
0.571094
0.542002
0.618186
0.59638
0.599115
0.622477
0.629753
0.555652
0.572975
0.577484
0.531264
0.555047
0.577611
0.576043
0.416193
0.291896
0.282961
0.243905
0.120574
0.153408
0.356519
0.27829
0.205726
0.210631
0.373224
0.26325
0.329078
0.367283
0.299003
0.25454
0.456124
0.52321
0.51385
0.489098
0.404927
0.417109
0.442947
0.478445
0.505501
0.53787
0.41026
0.416056
0.417342
0.414921
0.412044
0.414891
0.414935
0.417475
0.418354
0.421282
0.420254
-0.133131
-0.123479
-0.131029
-0.139465
-0.109912
-0.116993
-0.0683325
-0.0793732
-0.095101
-0.0873235
-0.116051
-0.120248
-0.111426
-0.104372
0.00579541
0.0217975
0.0116861
-0.0340523
0.143983
0.277725
0.343224
0.223993
0.11706
0.143224
0.169608
-0.0985955
-0.0520285
-0.072048
-0.035202
-0.051942
-0.125326
-0.142008
-0.14868
-0.0958498
-0.106052
-0.17326
-0.213594
-0.196112
-0.183301
-0.155082
-0.189169
0.397477
0.39113
0.392162
0.386386
0.385291
0.39867
0.402798
0.404573
0.409756
0.411501
0.402321
0.407627
0.410994
-0.168179
-0.25743
-0.230568
-0.188745
-0.216202
-0.262295
-0.226492
0.00992377
-0.0634384
-0.0574714
-0.0992234
-0.221413
-0.166813
0.374741
0.374307
0.383101
0.599859
0.452291
0.372306
0.468696
0.572486
0.156199
0.356814
0.188203
0.770338
0.660995
0.805256
0.427101
0.132287
0.2871
0.336567
0.145922
0.218586
0.223507
0.113096
0.145505
0.176225
0.27533
0.156179
0.130835
-0.112906
0.0733723
0.193137
0.173438
0.304695
0.369334
0.14588
0.0696052
0.023929
0.517386
0.537413
0.556217
0.52588
0.550754
0.472947
0.464722
0.482861
0.490953
0.484861
-0.871095
-0.57858
-1.52374
-0.838754
-0.388285
0.415797
0.37964
0.652224
0.543025
0.60848
0.594113
0.554813
0.52046
0.532238
0.564784
0.266525
0.376237
0.350504
0.35707
0.259915
0.193445
0.49198
0.485341
0.522411
0.546382
0.512806
0.546502
0.408127
0.407782
0.407168
0.403876
0.402445
0.404468
-0.025928
-0.057364
-0.0251279
-0.0475786
-0.0717138
-0.0805592
-0.123884
-0.142467
-0.161929
-0.17253
-0.158335
-0.118872
0.0496917
-0.00717001
-0.0821632
-0.0532044
-0.11019
-0.173306
-0.193051
-0.0946247
-0.00565865
-0.013427
0.289069
0.540124
0.36322
0.532388
0.370601
0.42651
0.374401
0.365369
0.395963
0.272132
0.348939
0.116103
-0.388295
-0.296912
0.668965
0.687852
0.472915
0.286522
0.0566054
0.244594
0.443665
0.381338
0.420451
0.488786
0.481285
-0.0985347
-0.0318616
0.230733
0.458972
0.125301
0.116217
0.111612
0.286492
0.210269
)
;

boundaryField
{
    wall-4
    {
        type            zeroGradient;
    }
    velocity-inlet-5
    {
        type            zeroGradient;
    }
    velocity-inlet-6
    {
        type            zeroGradient;
    }
    pressure-outlet-7
    {
        type            fixedValue;
        value           uniform 0;
    }
    wall-8
    {
        type            zeroGradient;
    }
    frontAndBackPlanes
    {
        type            empty;
    }
}


// ************************************************************************* //
