/*--------------------------------*- C++ -*----------------------------------*\
| =========                 |                                                 |
| \\      /  F ield         | OpenFOAM: The Open Source CFD Toolbox           |
|  \\    /   O peration     | Version:  4.0                                   |
|   \\  /    A nd           | Web:      www.OpenFOAM.org                      |
|    \\/     M anipulation  |                                                 |
\*---------------------------------------------------------------------------*/
FoamFile
{
    version     2.0;
    format      ascii;
    class       volVectorField;
    location    "31";
    object      U;
}
// * * * * * * * * * * * * * * * * * * * * * * * * * * * * * * * * * * * * * //

dimensions      [0 1 -1 0 0 0 0];

internalField   nonuniform List<vector> 
918
(
(0.985168 -0.000495041 0)
(0.00500947 2.96625 0)
(-0.0611077 1.11917 0)
(0.979698 0.00215274 0)
(-0.0120794 1.26681 1.40489e-19)
(-0.00704273 2.94879 -2.29594e-18)
(0.834045 1.17833 5.32921e-19)
(0.34958 0.160687 -1.38684e-20)
(0.999905 -0.000293495 0)
(0.0593135 0.856324 0)
(0.01176 0.685801 0)
(0.734303 -0.0102302 0)
(0.0111417 2.93032 0)
(0.00248572 2.79498 0)
(-0.0176451 3.15748 8.77472e-19)
(-0.124056 1.5922 3.03104e-21)
(0.429896 0.0547844 8.99725e-19)
(0.189348 1.19961 4.15557e-19)
(0.962774 0.00502812 0)
(-0.029128 0.666821 0)
(0.0840261 0.198378 -6.58081e-19)
(1.00198 -0.00498478 0)
(1.00022 -0.00980208 0)
(0.975711 -0.00643839 0)
(0.593895 -0.0429875 0)
(0.0164288 2.63755 0)
(-0.0149124 2.91007 8.32393e-19)
(-0.111755 0.985819 0)
(-0.207864 1.28836 0)
(-0.0815696 1.05608 0)
(-0.122891 2.39635 0)
(0.0428149 1.42344 -1.10637e-19)
(-0.0228206 1.02633 0)
(-0.0206068 2.9876 -8.20037e-23)
(-0.0166905 3.0053 1.78438e-18)
(0.0021045 3.00018 0)
(0.870331 -0.00940196 0)
(0.404712 0.939437 1.12234e-19)
(0.815297 1.19432 -6.59323e-19)
(0.965267 1.03316 6.70132e-19)
(0.684669 1.2878 -1.23508e-19)
(0.683172 1.27341 7.04497e-19)
(0.390232 0.248787 1.35301e-20)
(0.371662 0.132555 0)
(1.14687 0.557326 0)
(0.351934 0.249564 6.20015e-20)
(0.308164 0.165885 -6.4344e-20)
(0.919646 -0.00747798 0)
(1.00027 0.000132681 0)
(0.999911 0.000328294 0)
(1.00364 -0.00778218 0)
(1.00096 -0.000929966 0)
(1.00017 2.57992e-05 0)
(0.0769304 1.78458 -6.04695e-19)
(0.030426 1.011 0)
(0.0818459 0.917227 0)
(0.0289737 0.950509 0)
(0.0254109 0.785229 0)
(0.0288608 2.00515 0)
(-0.0182404 0.819943 0)
(0.00471454 0.682737 0)
(-0.00835768 0.799962 0)
(-0.00720543 0.658744 0)
(0.835667 -0.0145551 0)
(0.852143 0.0266191 0)
(0.768315 -0.000800257 0)
(0.826626 0.0353185 0)
(0.701443 -0.014774 0)
(0.0146918 3.0004 8.48587e-19)
(0.0115072 3.00803 0)
(0.00611513 3.00279 0)
(0.0135523 2.99737 9.5895e-24)
(0.00797156 2.95846 -1.26121e-18)
(0.014485 2.982 0)
(0.0108392 2.9036 0)
(0.0246718 2.93037 1.87517e-24)
(0.0044289 2.82521 0)
(0.0313212 2.91605 0)
(-0.00552461 2.74536 0)
(0.308877 3.55484 0)
(-0.131928 3.63647 0)
(0.139781 3.24799 -8.16591e-19)
(-0.0125755 2.983 0)
(-0.314465 2.20632 0)
(-0.126853 1.77591 -2.97253e-21)
(-0.111348 1.78258 8.04617e-21)
(0.511018 0.150658 -3.1091e-19)
(0.428515 0.0319456 -3.00392e-19)
(0.495331 0.175021 -9.37196e-19)
(0.413862 0.077517 -6.20848e-19)
(0.216254 0.924997 0)
(0.27065 1.33753 -4.67414e-19)
(0.37953 1.28285 7.75908e-19)
(0.98748 0.00851893 0)
(0.941957 0.00583982 0)
(1.0003 0.00057225 0)
(1.00287 0.00929859 0)
(1.00303 0.0084545 -2.22007e-18)
(0.991919 0.00970335 1.6765e-18)
(-0.0122839 0.77689 0)
(-0.00827354 0.624449 0)
(-0.106225 0.975306 0)
(-0.0234829 0.79937 0)
(-0.0065895 0.706746 0)
(0.131212 0.206319 2.03546e-19)
(0.186498 0.184935 0)
(0.993527 -0.00840259 0)
(0.954379 -0.00652713 0)
(0.780492 0.0414025 0)
(0.724903 0.0502456 0)
(0.659932 -0.0321427 0)
(0.948975 -0.00676478 0)
(0.65052 0.0628767 0)
(0.483828 -0.0208297 1.27789e-18)
(-0.0363114 2.86418 5.6877e-19)
(0.041871 2.90952 0)
(0.0549396 2.88467 0)
(-0.00444739 2.69895 0)
(-0.0131375 2.98516 7.82799e-19)
(-0.018039 2.89514 0)
(-0.015432 2.98808 -2.43855e-18)
(-0.0132949 2.9252 8.36725e-19)
(-0.294197 1.29999 0)
(-0.308493 1.4946 0)
(-0.13752 1.57129 1.97454e-21)
(-0.0785837 1.39756 0)
(-0.106223 1.29197 0)
(0.937608 -0.00765451 0)
(0.855715 -0.00964308 0)
(0.863721 0.00681403 0)
(0.948911 -0.00807893 0)
(0.883448 -0.00811408 0)
(0.51702 1.13325 -1.45482e-19)
(0.566631 1.18462 0)
(0.368306 0.883771 2.43938e-20)
(0.310417 0.743801 0)
(0.924802 1.07118 -1.87742e-19)
(1.03829 0.874085 3.78573e-19)
(0.373961 1.38126 0)
(0.536753 1.35119 0)
(0.545329 1.30717 0)
(0.107928 0.180699 -2.46753e-19)
(0.426349 0.229539 0)
(0.395025 0.118557 1.75662e-19)
(1.00839 0.928299 0)
(1.07431 0.775974 0)
(1.10001 0.718181 -3.0646e-19)
(1.12656 0.617245 0)
(1.17194 0.401101 5.57737e-20)
(0.957348 -0.00888224 0)
(0.962269 -0.0101011 0)
(0.901339 -0.0080273 0)
(0.98414 -0.00919551 0)
(0.974579 -0.00936477 0)
(0.936996 -0.00641469 0)
(1.00019 0.00232765 0)
(1.00091 0.00141267 0)
(0.999908 0.000845443 0)
(0.0357035 2.0512 3.42506e-19)
(0.121768 1.72709 0)
(0.0182565 2.16646 4.89826e-19)
(0.0514507 1.84508 -3.88097e-19)
(0.115896 1.19832 -3.42168e-19)
(0.0441856 1.08129 0)
(0.137457 1.06553 0)
(0.022199 0.90634 0)
(0.0230547 0.721478 0)
(-0.0129062 2.18622 1.04554e-22)
(0.0354126 1.99506 0)
(-0.0169658 2.15288 1.60812e-20)
(0.0320646 2.00256 -4.1137e-20)
(0.0191883 0.863544 0)
(-0.00144746 0.83141 0)
(0.01018 0.691346 0)
(-0.0122676 0.780074 0)
(-0.0259516 0.639931 0)
(0.933378 0.00817645 0)
(0.842471 -0.0153684 0)
(0.924244 -0.000435179 0)
(0.838432 -0.011561 0)
(0.813395 0.00326076 0)
(0.903296 0.0188168 0)
(0.881185 0.0226593 0)
(0.790169 0.00208218 0)
(0.00565234 3.06475 -7.80466e-21)
(0.0165262 3.05784 0)
(0.0146052 2.96908 0)
(0.00856279 2.87631 0)
(0.926187 3.97194 0)
(1.24103 3.30411 9.58899e-19)
(0.0701352 3.07535 0)
(-0.0283216 2.90632 0)
(-0.365278 1.58352 0)
(-0.375913 2.12351 0)
(-0.362205 1.86834 0)
(-0.210834 2.43051 -8.42741e-20)
(-0.279377 2.36601 0)
(-0.23228 2.32791 0)
(-0.0129787 1.96239 -1.93169e-21)
(-0.0551872 2.03509 -2.15873e-20)
(-0.113288 1.93914 -8.95182e-21)
(-0.0624716 1.91122 0)
(0.538724 0.123149 4.63891e-19)
(0.444196 0.00802929 -4.55108e-19)
(0.261096 1.55859 0)
(0.26418 0.700886 -2.77874e-19)
(0.177695 1.64474 -9.35902e-19)
(0.225067 1.17247 9.38307e-19)
(0.902458 0.00665645 0)
(0.967597 0.0109497 0)
(0.974667 0.0107282 0)
(0.923573 0.00653617 0)
(0.00751291 0.761691 0)
(-0.0115125 0.760831 0)
(-0.0144663 0.617374 0)
(0.298081 0.243006 5.68497e-19)
(0.243046 0.221072 -6.73881e-19)
(0.257073 0.177891 0)
(1.07609 0.0854315 1.81483e-20)
(1.05793 0.039774 0)
(0.992364 0.038983 0)
(0.888869 -0.00570555 0)
(0.562162 0.0955594 0)
(0.59178 0.072373 -2.0486e-18)
(0.460348 -0.00270202 7.72583e-19)
(0.00916573 2.98106 6.30917e-19)
(-0.0330024 2.86587 4.57897e-20)
(0.00369123 3.05025 -1.6604e-20)
(0.0201057 3.04338 5.92042e-19)
(-0.0149753 2.99656 2.75616e-20)
(-0.0129857 2.94946 -1.11015e-22)
(-0.0172853 3.01195 -5.12806e-19)
(0.0148975 3.02376 3.71417e-19)
(0.00739886 3.0369 -5.86747e-19)
(0.931898 -0.0024786 0)
(0.937974 -0.0038075 0)
(0.843281 -0.00868212 0)
(0.956891 0.0115734 0)
(0.943327 0.0127637 0)
(0.882006 0.00633591 0)
(0.919009 0.0154822 0)
(0.927025 0.0141921 0)
(0.839436 0.00485835 0)
(0.720704 1.41196 1.35267e-19)
(0.754302 1.52115 0)
(0.196492 0.344133 5.78386e-20)
(0.210611 0.648367 4.65698e-19)
(0.256561 0.717865 -2.6887e-19)
(0.270317 0.548878 5.29411e-19)
(0.320165 0.761964 1.31211e-18)
(0.125334 0.212021 3.17094e-19)
(0.470772 0.198898 6.60629e-19)
(0.447663 0.214245 1.69849e-19)
(0.40491 0.1023 3.29219e-19)
(1.16127 0.458869 1.15497e-19)
(1.17254 0.253308 1.15144e-19)
(0.00590847 2.20709 1.7418e-19)
(0.051043 1.91469 0)
(0.956614 0.0272778 0)
(0.93466 0.0116786 0)
(0.855375 -0.017819 0)
(0.011348 3.07463 0)
(0.0198972 2.94413 1.06776e-18)
(0.0164448 2.95648 0)
(0.00617923 2.85063 -1.05938e-18)
(0.00619438 3.0913 2.57864e-19)
(0.00708743 3.08223 0)
(0.787393 1.82406 -1.86592e-19)
(1.24877 2.50272 4.92108e-19)
(0.769555 1.96393 -1.32318e-18)
(0.0203834 2.98258 -5.2602e-19)
(0.0358626 3.00284 0)
(-0.0335129 2.87951 0)
(-0.0117929 2.12918 -8.17401e-22)
(-0.0295435 2.09123 5.07521e-20)
(0.0120493 1.99133 -7.03491e-22)
(0.275208 1.36562 9.0622e-19)
(0.217527 0.483122 -6.22372e-19)
(0.0622559 1.97319 6.70843e-19)
(0.13768 1.8637 -8.05164e-19)
(0.177927 1.46659 8.78772e-20)
(0.00317551 3.11906 -1.58307e-18)
(0.0121324 3.11925 1.73099e-18)
(-0.00889482 2.9811 7.09661e-19)
(-0.00415272 2.97762 -6.59055e-19)
(-0.0212618 2.88109 -7.22779e-19)
(0.00853513 3.10022 -1.91228e-18)
(0.00217394 3.10479 1.90418e-18)
(0.26462 0.671131 0)
(0.222839 0.659803 -9.56623e-19)
(0.101572 0.221342 4.24759e-19)
(0.339239 0.88491 9.4801e-19)
(0.18002 0.253276 -1.45957e-18)
(1.16248 0.173232 3.09254e-20)
(1.17332 0.307704 0)
(1.15009 0.1209 2.43195e-20)
(-0.00667144 2.20606 -4.52624e-22)
(-0.00191205 2.20963 0)
(0.0371634 1.96049 0)
(0.336938 1.26816 -3.27757e-19)
(0.360566 1.09358 -7.03788e-19)
(0.192572 0.347016 1.24172e-18)
(1.00587 -0.0108771 0)
(1.00766 -0.00767002 4.09009e-19)
(-0.275715 1.30647 0)
(-0.221241 1.10735 0)
(1.00221 0.00346875 1.77315e-21)
(1.00367 0.00943076 8.3586e-19)
(-0.216237 2.45604 1.05614e-19)
(-0.224032 2.47634 0)
(0.0361851 3.17958 3.20544e-19)
(0.396241 3.49311 0)
(1.13231 0.65277 -2.74771e-20)
(1.013 0.0129866 -2.15439e-21)
(1.02117 -0.0105159 0)
(1.0017 0.000129171 6.81983e-23)
(0.0978718 1.35386 0)
(0.144232 2.58197 0)
(0.0359327 1.29147 0)
(0.00239073 2.62223 -2.74943e-20)
(-0.0281705 2.57571 -3.20941e-20)
(1.00446 0.0277673 2.59251e-21)
(1.06157 0.00238733 0)
(1.09048 0.0155307 0)
(-0.343291 2.11609 0)
(-0.177587 2.5504 0)
(-0.0306847 1.07886 0)
(0.279842 1.46327 -2.50334e-19)
(1.01124 -0.00969422 0)
(1.00938 -0.0149507 0)
(1.00237 0.000711741 5.21897e-19)
(1.00547 -0.00485101 -6.14248e-19)
(1.00117 -0.00103398 0)
(-0.336827 1.83363 0)
(-0.297776 1.34684 0)
(-0.341001 1.61625 0)
(-0.0354804 1.03951 0)
(-0.0958244 1.00936 0)
(-0.0432359 0.934032 0)
(1.03416 -0.00681191 0)
(1.02092 0.0156822 -9.57422e-22)
(0.79358 1.25715 3.34871e-19)
(1.00232 0.000293917 -5.21619e-19)
(1.00406 0.00521664 6.10057e-19)
(1.00117 0.00204675 0)
(1.01284 0.010266 5.16344e-19)
(1.00808 0.00828386 -6.27987e-19)
(1.00861 0.0146966 0)
(-0.218142 2.57596 0)
(-0.235798 2.54107 -1.6575e-19)
(-0.251012 2.5101 1.18194e-19)
(1.20766 0.261068 3.98773e-19)
(1.14551 0.079637 0)
(0.0455554 3.07755 -8.00592e-19)
(0.0658954 2.85318 -5.95448e-20)
(0.14251 3.19406 1.23279e-18)
(0.137151 3.22294 -1.39392e-19)
(0.135805 3.23575 0)
(0.0202403 3.13792 1.99732e-19)
(0.0771292 3.16064 7.87766e-19)
(0.0696499 3.18709 -3.78133e-19)
(0.0235196 3.12908 0)
(0.660343 0.301974 0)
(0.575872 0.364732 0)
(1.10412 0.683275 3.75476e-20)
(1.10111 0.814829 9.07143e-21)
(1.16148 0.5703 0)
(1.19123 0.512337 0)
(1.01621 0.0132134 -9.61329e-19)
(1.01499 0.0142147 1.20555e-18)
(1.02507 -0.0100059 0)
(1.02312 -0.0119763 0)
(1.00643 0.002621 0)
(1.01037 0.00367508 0)
(1.00449 0.00189761 0)
(1.00985 0.00601212 0)
(1.00793 0.00598534 0)
(1.00447 0.00463868 0)
(0.0896999 1.34917 0)
(0.0819387 1.31833 0)
(0.113171 1.38273 0)
(0.127319 1.40266 0)
(0.144973 2.60525 0)
(0.18623 2.66695 -3.60074e-19)
(0.0993997 2.66188 0)
(0.086567 2.66362 1.32208e-19)
(0.041333 2.67769 -5.84828e-20)
(0.0475241 1.27907 0)
(0.059021 1.19622 0)
(0.0180944 1.31879 0)
(0.0311751 1.26663 0)
(-0.0161474 1.98398 6.5772e-20)
(-0.0348804 2.6033 -7.46885e-20)
(-0.0125674 2.66537 -7.16378e-20)
(-0.0257961 2.67377 0)
(-0.0432434 2.6076 9.82378e-20)
(-0.0376233 2.602 6.71455e-20)
(-0.0144072 1.98429 -5.0722e-20)
(-0.0314139 2.41168 1.00155e-19)
(-0.023679 2.42976 8.12732e-20)
(1.01345 0.03462 9.72741e-19)
(1.00851 0.0172416 -1.20331e-18)
(1.00542 0.0415799 -9.79785e-19)
(0.984779 0.0231723 1.248e-18)
(1.06236 0.00620503 0)
(1.04767 -0.00919495 0)
(1.08885 0.0268811 0)
(1.07094 0.00906626 0)
(1.06805 -0.00165454 0)
(1.12855 0.0713964 0)
(1.10225 0.0350221 0)
(1.10381 0.024249 0)
(-0.235241 2.49822 2.01169e-20)
(-0.32255 2.36729 0)
(-0.289952 2.40015 0)
(-0.14968 2.59959 -7.47266e-20)
(-0.0844529 2.55987 5.17023e-22)
(-0.154286 1.97131 -3.47655e-19)
(-0.235128 1.84156 3.51936e-19)
(-0.0294723 1.34371 0)
(-0.158184 1.36509 0)
(-0.233923 1.38934 0)
(0.0256937 1.07571 0)
(-0.0225577 0.961839 0)
(0.373527 1.47692 4.49064e-19)
(0.408882 1.48601 2.01963e-19)
(0.594347 2.45194 -2.09658e-19)
(0.405369 2.54509 6.0568e-19)
(0.354982 2.07995 3.0528e-20)
(1.02082 -0.00828329 0)
(1.01539 -0.00985344 0)
(1.01483 -0.0156529 0)
(1.00745 -0.00129305 0)
(1.00496 -0.000996019 0)
(1.00775 -0.00482189 0)
(1.00922 -0.00385912 0)
(1.0141 -0.00456341 0)
(1.02162 0.0158318 9.36428e-19)
(1.01828 0.0157769 -1.20261e-18)
(1.02211 0.0176726 -9.41841e-19)
(1.01973 0.0163829 1.18103e-18)
(0.761835 1.30623 0)
(0.695347 1.36097 3.57486e-19)
(0.870302 1.20335 1.70594e-19)
(0.913683 1.15859 -2.27059e-19)
(1.15922 2.6097 1.24488e-20)
(0.818863 0.095525 5.04347e-19)
(1.14523 0.0983192 0)
(1.18767 0.186274 -3.18373e-19)
(1.17272 0.153403 -1.3332e-20)
(1.00568 0.132656 0)
(0.139084 2.96292 4.10224e-19)
(0.115857 2.86873 -1.01955e-18)
(0.0276167 2.3697 6.98311e-19)
(0.0933502 0.0121167 -3.07836e-19)
(0.34094 3.422 -2.86307e-19)
(0.194995 3.31457 0)
(0.23777 3.35682 3.72866e-19)
(0.247212 3.03588 -1.46419e-18)
(0.342082 3.19474 0)
(0.00772108 3.12066 4.04024e-20)
(0.0176511 3.12966 -4.83758e-19)
(0.0160482 3.12565 7.12025e-19)
(0.0364211 3.13964 0)
(0.0347233 3.15096 0)
(1.2171 2.60948 0)
(0.533958 0.842771 -4.3622e-19)
(1.0328 0.986656 -5.8326e-20)
(0.97145 1.05666 0)
(0.816504 0.958178 -6.05494e-20)
(1.05603 0.874648 2.96613e-20)
(0.368401 0.415004 -8.03826e-19)
(0.701761 0.326305 -2.26102e-20)
(0.685784 0.253946 3.68146e-19)
(0.591737 0.395903 2.7471e-20)
(0.511111 0.371239 -1.10946e-18)
(0.67293 0.340621 0)
(0.699231 0.427614 6.19527e-19)
(0.706526 0.42606 0)
(0.629574 0.378741 0)
(0.608359 0.305729 0)
(0.784046 0.616887 3.34369e-19)
(1.20412 0.280185 -3.45042e-19)
(1.20008 0.415473 0)
(1.21247 0.364436 0)
(0.763291 0.195998 5.47986e-19)
(0.829553 0.538566 -3.3283e-19)
(0.735339 0.5154 5.77504e-19)
(0.929404 0.419733 -6.20756e-19)
(1.01992 0.0145484 6.45391e-19)
(1.01798 0.0140954 -6.50936e-19)
(1.01595 0.0156836 0)
(1.03556 -0.00635649 0)
(1.02939 -0.00890159 -6.04983e-19)
(1.02721 -0.012411 5.98914e-19)
(1.02515 0.00953779 0)
(1.02373 0.0130293 0)
(1.01138 0.00399647 0)
(1.01431 0.00883691 0)
(1.01507 0.00377629 0)
(1.01419 0.00268933 0)
(0.0681012 1.33342 0)
(0.0685586 1.29473 0)
(0.146571 1.34163 1.05386e-19)
(0.259984 1.46098 1.37294e-19)
(0.150936 1.43283 2.88278e-19)
(0.181723 1.44103 -4.71494e-19)
(0.16463 1.37026 0)
(0.125372 1.59027 4.09235e-20)
(0.10846 1.55847 0)
(0.352313 2.03497 -4.43672e-20)
(0.351583 2.36706 4.92709e-19)
(0.1838 1.44008 -3.57039e-20)
(0.261187 1.36457 7.82693e-20)
(0.191768 1.3523 -6.31583e-20)
(0.268872 1.30508 3.98144e-20)
(0.236615 1.5737 0)
(0.260969 1.61539 3.8986e-21)
(0.025134 2.27554 9.2884e-21)
(0.038282 2.67111 0)
(0.0626886 2.41227 3.70767e-20)
(0.0568528 2.43317 0)
(0.067272 2.676 -1.46887e-19)
(0.0502144 2.69979 0)
(0.030209 1.42544 1.17412e-19)
(0.0176738 1.46523 0)
(0.0227143 1.38993 0)
(0.0348682 1.39567 -1.3052e-19)
(-0.0017628 2.6504 -1.93632e-20)
(0.0259927 2.69726 5.45498e-20)
(0.0109411 2.71842 3.6091e-22)
(0.0312549 1.87466 -7.73168e-20)
(-0.00485117 1.65373 -2.88031e-20)
(0.0716408 1.1926 0)
(0.0483453 1.07866 0)
(0.0313107 1.57626 -1.47447e-19)
(0.019699 1.44729 -1.45879e-19)
(0.0331468 1.50918 1.86545e-19)
(0.0305301 1.60083 0)
(-0.153245 2.46329 4.94081e-19)
(-0.163494 2.60137 -2.12821e-19)
(-0.0799685 2.54261 3.76602e-20)
(-0.00483031 1.89093 9.30136e-20)
(-0.0750134 2.51339 3.37961e-20)
(-0.0255862 2.45089 -8.74594e-20)
(1.02053 0.0202726 -6.40249e-19)
(1.01721 0.0253425 6.42708e-19)
(1.015 0.016392 0)
(1.01782 0.0640144 8.80741e-19)
(0.99612 0.0552306 -1.02167e-18)
(0.958122 0.0420254 1.14822e-18)
(1.01762 0.0972375 -1.20244e-19)
(1.04178 -0.00641407 0)
(1.0497 -0.00226247 5.72149e-19)
(1.03804 -0.0105086 -5.73834e-19)
(1.06865 0.0359772 -3.37089e-20)
(1.06302 0.0192636 2.92246e-19)
(1.06105 0.0468577 0)
(1.05524 0.0408558 -1.05238e-19)
(1.03258 0.0379345 0)
(1.02653 0.0346127 0)
(1.02763 0.0123249 0)
(1.02437 0.0152353 0)
(1.03864 0.0286649 2.17425e-19)
(1.03824 0.0245515 -4.82324e-19)
(1.0507 0.0298645 -2.29775e-19)
(1.04747 0.0296873 -2.53356e-19)
(1.07008 0.0526713 4.90925e-19)
(1.08946 0.0415767 0)
(1.09616 0.0871778 0)
(-0.164017 2.47426 2.51625e-19)
(-0.251398 2.3532 2.76048e-20)
(-0.24042 2.37176 0)
(-0.23408 2.53031 -2.34184e-19)
(-0.247847 2.50986 -4.55502e-20)
(-0.228389 2.53211 4.32901e-20)
(-0.0530747 2.60816 -5.45574e-20)
(-0.094966 2.56551 4.82813e-21)
(-0.0629943 2.53915 -2.20482e-20)
(-0.0816743 2.59179 3.18396e-20)
(-0.0465761 2.59061 -3.97161e-20)
(0.026178 1.61498 6.47169e-21)
(-0.0278031 1.97438 -3.52323e-19)
(0.36387 1.41509 -2.08612e-19)
(0.361715 1.35535 -1.12677e-19)
(0.64282 1.40656 -3.45685e-19)
(0.509616 1.47202 -1.95476e-19)
(0.561075 1.44554 0)
(0.590269 2.42672 1.8196e-19)
(0.657428 2.41735 2.99616e-19)
(0.410936 2.52143 8.12009e-20)
(0.405266 2.55639 -4.67154e-19)
(0.515475 2.50718 4.88719e-19)
(0.548852 2.46535 0)
(0.488183 2.51726 -4.91736e-19)
(0.247232 2.59376 9.78231e-19)
(0.353072 2.57029 -8.16081e-20)
(0.284339 2.65433 -1.36897e-18)
(0.937091 2.38405 5.66202e-19)
(0.831513 2.38791 0)
(1.01106 0.000279389 2.10994e-20)
(1.01534 -0.00556227 -1.71772e-20)
(1.01749 -0.00368191 -3.12132e-19)
(1.01488 -0.00115662 3.14347e-19)
(1.01235 0.000804245 0)
(0.630228 1.27322 0)
(0.651965 1.1684 0)
(0.752185 1.07568 0)
(0.643306 1.13589 0)
(1.18714 2.625 5.86687e-20)
(1.07759 2.36954 0)
(0.843754 2.19273 1.98819e-21)
(0.82814 2.46103 0)
(0.92313 2.54864 -2.70919e-19)
(0.959905 2.50287 1.80461e-19)
(0.830473 0.146172 0)
(0.801218 0.131668 1.3972e-19)
(0.924913 0.122955 7.87231e-19)
(0.849152 0.119658 -3.0058e-19)
(0.82954 0.0611864 -9.12518e-19)
(1.06401 0.222394 -7.0951e-19)
(0.983639 0.276833 -1.56348e-20)
(0.911676 0.27283 7.32471e-19)
(0.997707 0.204999 5.97941e-19)
(0.94779 0.163633 -1.03707e-18)
(0.917621 0.169907 1.30612e-19)
(0.945409 0.233071 -2.75492e-19)
(0.924279 0.19362 0)
(0.993829 0.165311 5.09086e-19)
(1.04073 0.171082 0)
(1.03679 0.197587 0)
(1.09435 0.108861 2.26973e-19)
(1.06778 0.162065 -1.35675e-20)
(1.05809 0.226206 -1.23997e-19)
(1.09002 0.194819 0)
(1.02327 0.042264 4.95243e-19)
(1.04299 0.0514736 6.11534e-19)
(1.03354 0.0394908 -4.91593e-19)
(1.04437 0.0566093 -4.10014e-19)
(1.01876 0.0653156 -6.23363e-19)
(0.991418 0.137347 0)
(1.00296 0.0921464 0)
(0.973633 0.0579864 -4.09779e-19)
(0.92571 0.0744675 1.63087e-19)
(1.04173 0.0924056 5.69059e-19)
(1.0688 0.109735 -6.59241e-19)
(1.07322 0.141069 5.91278e-19)
(1.03438 0.130117 0)
(1.07448 0.0955299 0)
(1.06027 0.0776072 -2.68944e-19)
(1.04957 0.0859691 -4.64655e-19)
(0.586406 1.08649 6.3779e-20)
(0.616544 1.41376 3.54333e-20)
(1.15847 2.74144 -1.20456e-19)
(1.22453 3.08264 -2.23258e-20)
(1.25045 2.72381 9.73507e-20)
(1.28053 2.70762 -1.33185e-19)
(1.20897 2.34815 -9.89125e-21)
(1.21185 2.98654 1.40744e-21)
(1.23135 2.95163 8.71368e-20)
(1.2155 3.23646 -1.85253e-19)
(1.37665 2.96835 2.56232e-19)
(1.36737 2.88673 0)
(0.540443 0.849598 -3.78332e-20)
(0.139973 1.26227 5.07319e-19)
(0.526815 0.470838 5.22798e-19)
(0.361198 0.222869 5.7309e-19)
(0.530582 0.401274 6.24825e-19)
(0.538631 0.489567 -1.01887e-18)
(0.541457 0.495413 8.33605e-19)
(0.49569 0.420923 -3.15455e-19)
(0.424922 0.35979 7.20255e-19)
(0.766282 0.252869 -3.12121e-19)
(0.725906 0.290801 0)
(0.722175 0.225419 9.94474e-21)
(0.714792 0.514263 3.24475e-19)
(0.686648 0.487392 -1.18556e-18)
(0.607255 0.48831 1.6504e-20)
(0.623029 0.471535 0)
(0.666962 0.739244 3.20651e-19)
(0.812935 0.769192 2.93937e-19)
(0.742334 0.853123 -3.46533e-19)
(0.855134 0.800861 -1.16593e-19)
(0.888372 0.841422 -2.32055e-20)
(0.896688 0.842945 2.3752e-20)
(0.823406 0.643399 -5.57393e-19)
(0.900237 0.695912 1.0832e-19)
(0.958467 0.709716 0)
(0.947446 0.686004 -1.48195e-19)
(1.00922 0.317986 1.726e-19)
(1.11742 0.289638 2.11643e-19)
(1.04844 0.260388 2.89883e-19)
(0.990043 0.351222 -3.52793e-19)
(1.03124 0.417825 0)
(1.08523 0.405229 0)
(0.899647 0.349053 4.61992e-21)
(0.838292 0.283073 0)
(0.86081 0.274858 3.50456e-19)
(0.896182 0.279135 -6.27878e-21)
(0.920654 0.422977 1.72513e-18)
(0.877134 0.484631 4.43719e-19)
(0.882715 0.449403 -4.86062e-19)
(0.813313 0.437269 5.2077e-19)
(0.795213 0.43139 3.19771e-19)
(0.767463 0.417288 -3.14256e-19)
(1.02704 -0.000730252 5.18417e-19)
(1.02005 -0.000366662 0)
(1.01858 0.000542096 3.38481e-19)
(1.02127 -0.00208109 -7.65965e-19)
(1.02246 0.00401704 3.72315e-19)
(1.02051 0.0108102 -7.79783e-19)
(1.02153 0.0102308 0)
(1.02084 0.0105194 -1.62803e-19)
(1.0161 0.00738374 4.08404e-19)
(1.01679 0.010178 -2.03761e-19)
(1.01748 0.00955178 1.50098e-19)
(0.0407583 1.31957 0)
(0.0334287 1.36162 0)
(0.052181 1.31662 0)
(0.03524 1.27776 0)
(0.0761709 1.3698 -2.43472e-19)
(0.0816501 1.34111 8.14997e-20)
(0.103258 1.49161 4.09832e-20)
(0.0881656 1.33691 -5.37772e-20)
(0.029458 1.45236 1.32357e-19)
(0.0349914 1.44336 -1.0179e-19)
(0.0670595 1.35115 -6.1229e-21)
(0.0590513 1.35361 1.56685e-19)
(0.0503771 1.33159 2.2402e-20)
(0.0359939 1.35884 1.78579e-20)
(0.105151 2.38742 -3.96e-20)
(0.0932653 2.42943 0)
(0.163893 2.06467 6.20929e-20)
(0.110848 1.70931 -5.64882e-21)
(0.227159 2.05963 -4.93935e-20)
(0.211016 2.45594 0)
(0.268191 2.40859 -4.30142e-19)
(0.304417 2.40733 3.06281e-19)
(0.228655 2.01811 -1.36604e-19)
(0.149896 2.18463 1.06632e-19)
(0.145611 2.30659 0)
(0.021666 1.88639 1.40746e-19)
(-0.0106461 2.40411 8.70612e-20)
(-0.0044295 2.15774 0)
(0.00519063 2.46417 -1.27818e-20)
(0.0199128 2.31395 -5.70321e-20)
(0.0619699 1.42696 -2.4238e-20)
(0.111613 1.37827 4.27509e-19)
(0.0996439 1.4268 -1.42928e-19)
(0.0510798 1.43133 -1.17993e-19)
(0.0475632 1.4412 0)
(0.0953796 1.40395 0)
(0.00948899 1.10012 -2.28941e-19)
(0.107318 1.35306 6.88401e-20)
(0.121873 1.36087 0)
(0.054498 1.11286 -1.43059e-19)
(0.0380147 0.948147 3.11389e-19)
(1.04035 0.0106693 0)
(1.04548 0.00713149 -5.37281e-20)
(1.03837 0.0205267 -3.87908e-19)
(1.04757 0.0190851 0)
(1.05206 0.018712 0)
(1.03592 0.0104658 -6.41516e-21)
(1.03141 0.0103274 6.24057e-19)
(1.0316 0.015247 7.59052e-19)
(1.02606 0.019101 0)
(1.02351 0.0198164 0)
(1.03481 0.0234056 3.87536e-19)
(1.02609 0.02477 0)
(1.02534 0.0243701 0)
(0.0115171 2.15058 0)
(0.00297778 1.95844 2.07527e-20)
(-0.00752084 2.0546 -1.22168e-19)
(0.0812395 1.355 0)
(0.111715 1.68838 -1.28394e-19)
(0.109695 1.49256 1.21605e-19)
(0.070978 1.34577 0)
(0.395265 1.69015 0)
(0.362183 1.28219 1.75016e-19)
(0.305702 1.33711 0)
(0.417635 1.28181 -2.77389e-19)
(0.461595 1.44495 0)
(0.442975 1.38934 1.454e-19)
(1.033 2.69436 -1.18577e-20)
(0.95993 2.41512 -7.12415e-19)
(0.907169 2.18626 8.23498e-19)
(0.844274 2.38015 2.01597e-19)
(0.845569 2.5084 0)
(0.915952 2.50229 0)
(0.9204 2.37795 0)
(0.897974 2.36319 -7.80029e-19)
(0.692994 2.48061 -2.63251e-19)
(0.802001 2.4722 -6.83704e-20)
(0.813789 2.44325 5.22886e-20)
(0.691908 2.39396 0)
(0.795812 2.39135 0)
(0.754791 2.40284 -3.19799e-19)
(0.769871 2.4994 0)
(0.614138 1.09041 0)
(0.486923 0.931824 -3.41266e-19)
(0.55575 0.965148 -2.20734e-20)
(0.527748 1.06291 0)
(0.526582 1.01179 5.13126e-19)
(0.766239 0.87768 -8.57394e-20)
(0.777706 1.01 0)
(0.750511 0.965255 1.10959e-19)
(0.64096 1.03151 0)
(0.644843 0.942961 0)
(1.16582 2.7629 -1.38311e-19)
(1.14385 2.82649 -2.62969e-20)
(0.935246 2.34834 -2.31301e-20)
(0.902384 2.32762 -4.48064e-20)
(1.13063 2.7372 0)
(1.08351 2.7079 5.40313e-20)
(1.09003 2.49038 -2.41205e-19)
(0.985641 2.2359 -3.07952e-20)
(0.505368 1.36807 0)
(0.518958 1.08187 -5.63091e-20)
(0.558925 1.15676 0)
(0.860065 0.213224 0)
(0.807243 0.169254 0)
(0.764667 0.148335 0)
(0.854495 0.222625 -5.51511e-19)
(0.784165 0.21359 3.27701e-19)
(0.935803 0.0608167 -3.36319e-19)
(0.950286 0.10607 0)
(0.926671 0.111331 1.46223e-19)
(0.872944 0.0884232 5.88231e-19)
(0.854562 0.0493845 -3.66724e-19)
(1.16263 3.36209 -8.08463e-19)
(1.21032 3.28127 0)
(1.16111 3.39029 -1.63885e-18)
(0.648335 3.55116 1.39744e-18)
(0.872973 3.11853 1.74922e-19)
(0.514099 0.855853 4.79424e-19)
(0.433292 0.851208 0)
(0.339586 0.503908 -1.29719e-19)
(0.441538 0.687916 7.07323e-19)
(0.529281 0.476708 -1.77948e-19)
(0.504504 0.526917 2.02789e-19)
(0.650391 0.542577 4.3966e-19)
(0.678599 0.560892 0)
(0.631862 0.624717 0)
(0.589602 0.562234 0)
(0.956373 0.595822 5.33694e-20)
(0.880456 0.534557 -4.31315e-19)
(0.903096 0.566297 3.10957e-19)
(0.938466 0.501871 -3.31885e-19)
(1.04256 0.475869 0)
(1.05177 0.565077 -7.38831e-20)
(0.837518 0.387021 -7.25573e-19)
(0.841737 0.371947 -8.83356e-19)
(0.790555 0.385678 5.66639e-19)
(0.784538 0.356443 -5.9308e-19)
(0.837331 0.310585 -4.56754e-19)
(0.792357 0.308945 5.61598e-19)
(1.02668 0.00555335 -4.01367e-19)
(1.0263 0.00586156 8.22018e-19)
(1.02936 -0.000402592 5.0086e-19)
(1.03313 0.000578703 -6.0319e-19)
(1.03295 0.00763171 0)
(1.02998 0.00857906 -9.756e-19)
(0.0540979 1.6441 -3.91691e-21)
(0.0374193 1.57163 0)
(0.0778529 1.69296 -7.29172e-20)
(0.082383 1.67776 7.22314e-20)
(0.0824883 1.5216 -7.69008e-20)
(0.0892613 1.50505 0)
(0.081917 1.7696 0)
(0.0716194 1.60543 5.01072e-20)
(0.100246 1.48861 -4.49877e-20)
(0.0921675 1.6648 1.7341e-20)
(0.0355734 2.02092 9.14067e-20)
(0.0300883 2.01231 -2.58946e-20)
(0.499829 1.37897 -3.98563e-20)
(0.492867 1.38481 4.69622e-20)
(0.439524 1.27988 1.19554e-19)
(0.435413 1.29509 -3.39188e-21)
(0.624316 1.28751 0)
(0.538658 1.37512 2.40201e-19)
(0.556658 1.38382 -2.33926e-19)
(0.446001 1.26935 -1.15376e-19)
(0.503841 1.2224 0)
(0.560179 1.19328 0)
(0.659451 2.44002 3.86808e-19)
(0.669803 2.47308 1.01409e-18)
(0.717368 2.48811 -6.97872e-19)
(0.619756 2.46901 -1.77385e-19)
(0.563347 2.55899 2.20657e-19)
(0.512799 2.53151 -5.96019e-19)
(0.973743 2.38043 -4.57716e-19)
(1.01238 2.396 0)
(0.919621 2.16595 -5.39766e-19)
(1.0528 2.68811 0)
(1.05505 2.67509 0)
(0.61319 2.27814 -9.77619e-22)
(1.0431 3.16485 2.49573e-19)
(0.914206 3.03522 -1.68335e-19)
(0.283766 0.921608 0)
(0.322655 0.782639 -2.64231e-19)
(0.479632 0.736775 -2.38249e-19)
(0.389989 2.02667 0)
(0.468996 2.78755 -1.21785e-19)
(0.424239 2.5518 0)
(0.677124 0.687739 -6.77347e-19)
(0.757032 0.680242 9.17733e-19)
(0.775869 0.624823 -9.07217e-19)
(0.657348 0.650002 -8.99132e-20)
(0.712866 0.600615 -3.72561e-19)
(1.00555 2.76851 -1.89768e-19)
(1.0426 2.82414 -1.56906e-20)
(0.640125 2.15291 4.7532e-19)
(0.598398 1.7212 -3.49446e-19)
(0.702045 1.91123 -2.3839e-19)
(0.991716 2.45165 -9.99195e-20)
(0.996319 2.44403 1.47253e-19)
(0.661317 1.85003 1.7317e-20)
(0.454772 1.34116 7.26498e-20)
)
;

boundaryField
{
    wall-4
    {
        type            noSlip;
    }
    velocity-inlet-5
    {
        type            fixedValue;
        value           uniform (1 0 0);
    }
    velocity-inlet-6
    {
        type            fixedValue;
        value           uniform (0 3 0);
    }
    pressure-outlet-7
    {
        type            zeroGradient;
    }
    wall-8
    {
        type            noSlip;
    }
    frontAndBackPlanes
    {
        type            empty;
    }
}


// ************************************************************************* //
