/*--------------------------------*- C++ -*----------------------------------*\
| =========                 |                                                 |
| \\      /  F ield         | OpenFOAM: The Open Source CFD Toolbox           |
|  \\    /   O peration     | Version:  4.0                                   |
|   \\  /    A nd           | Web:      www.OpenFOAM.org                      |
|    \\/     M anipulation  |                                                 |
\*---------------------------------------------------------------------------*/
FoamFile
{
    version     2.0;
    format      ascii;
    class       volScalarField;
    location    "22";
    object      p;
}
// * * * * * * * * * * * * * * * * * * * * * * * * * * * * * * * * * * * * * //

dimensions      [0 2 -2 0 0 0 0];

internalField   nonuniform List<scalar> 
918
(
0.235174
0.908335
0.0115421
0.234312
-0.00313958
0.876009
-0.830103
0.408522
0.215031
-0.440313
-0.2311
0.204599
0.736783
0.503287
-1.44723
-0.0190222
0.365433
-0.709229
0.2142
-0.00655318
0.481133
0.221538
0.224529
0.214907
0.278205
0.495312
0.6171
0.00824345
-0.000215809
-0.00309196
0.0015848
-0.0167738
-0.0139326
0.759348
0.809991
0.832553
0.184191
0.0219966
-0.664966
-0.751374
-0.740717
-0.880471
0.401046
0.405823
-0.486692
0.412158
0.427555
0.202793
0.214321
0.21523
0.216465
0.215352
0.216795
0.157943
-0.439804
-0.472403
-0.432513
-0.439215
-0.186501
-0.291909
-0.344204
-0.191355
-0.147678
0.139744
0.201408
0.198987
0.209691
0.220683
0.847122
0.818117
0.843764
0.760777
0.775587
0.714454
0.6864
0.52367
0.544958
0.490462
0.479404
-1.87714
-2.84599
-0.854099
-0.597833
0.000388825
-0.0274382
-0.0310626
0.3529
0.359112
0.362549
0.379856
0.764611
-0.698725
-0.856791
0.213996
0.212944
0.221233
0.221586
0.218734
0.216837
0.00407385
-0.00121081
-0.0159518
0.00115302
-0.00513634
0.464017
0.457567
0.216566
0.213228
0.226483
0.2479
0.238217
-0.0169838
0.285542
0.30475
0.29994
0.476503
0.474783
0.481394
0.591376
0.554991
0.65467
0.677961
0.00961645
0.00315626
-0.0221013
-0.0152628
-0.0188445
0.180476
0.172831
0.197746
0.187423
0.189732
-0.0606243
-0.194563
0.114086
0.139688
-0.570424
-0.649902
-0.759164
-0.779079
-0.89962
0.254191
0.389961
0.392144
-0.494611
-0.423956
-0.565456
-0.337412
-0.411479
0.193187
0.200114
0.194502
0.210003
0.204835
0.20644
0.218609
0.215672
0.217209
0.204463
0.302688
0.0974774
0.0730838
-0.572437
-0.471916
-0.558008
-0.450453
-0.440018
-0.154379
-0.139492
-0.185127
-0.173114
-0.445623
-0.401324
-0.421834
-0.107891
-0.0758073
0.132609
0.124466
0.150856
0.156808
0.194386
0.194907
0.197226
0.195721
0.636489
0.658978
0.66757
0.641057
-3.87398
-6.95175
-0.265663
-0.122917
0.00109958
0.00325341
0.00260196
0.00627988
0.00161651
-0.000467423
-0.10916
-0.0941188
-0.0463773
-0.0607439
0.339366
0.343631
0.67052
0.660441
0.648055
0.601162
0.202123
0.204321
0.209793
0.20527
-0.0407466
-0.0102766
-0.0231629
0.427148
0.445425
0.442116
-0.0516054
-0.13745
0.0301827
0.0573727
0.3248
0.309323
0.326078
0.362981
0.400154
0.684421
0.702442
0.702647
0.71078
0.755785
0.768676
0.734503
0.161828
0.171342
0.166767
0.201203
0.198643
0.199762
0.194686
0.196575
0.192997
-0.367614
-0.731434
0.217857
0.23189
0.18785
0.19832
0.333401
0.397774
0.374437
0.38173
0.386989
-0.270935
-0.339755
-0.00109525
-0.0393091
0.0822246
0.113382
0.0966066
0.607623
0.56926
0.619266
0.592225
0.552783
0.578279
-0.77213
-2.02799
-1.27788
0.240868
0.0469957
0.13745
-0.160565
-0.190362
-0.154666
0.630042
0.719219
0.336773
0.515434
0.572313
0.441109
0.472419
0.52878
0.452959
0.487129
0.521955
0.502625
0.224392
0.21923
0.199963
0.45996
0.510226
-0.156958
-0.201767
-0.267686
-0.131604
-0.0681846
-0.103829
0.685865
0.573085
0.650092
0.212842
0.213442
0.00982338
0.0149381
0.217516
0.217705
0.00580705
-0.00204795
0.119341
-1.14976
-0.1785
0.205341
0.196365
0.212914
-0.412991
0.110928
-0.311363
-0.23784
-0.0718852
0.202766
0.148717
0.116655
0.00728002
-0.00447139
-0.0156196
-0.524095
0.210361
0.208497
0.212456
0.213538
0.214162
0.00622291
0.00596456
0.0045649
-0.00726884
0.000766509
-0.000586003
0.178249
0.193082
-0.47699
0.212548
0.214776
0.214561
0.207181
0.213197
0.21102
-0.000683726
-0.00220019
-0.0147098
-0.0603506
0.0540002
0.375379
0.487747
0.334764
0.100595
-0.148199
0.269777
0.338684
0.237208
0.401677
0.37664
0.400241
-0.113762
-0.268996
-0.104807
-0.162415
0.203611
0.202092
0.194564
0.191549
0.20801
0.206181
0.210442
0.207341
0.210253
0.211726
-0.385101
-0.417047
-0.404728
-0.466778
0.0597991
0.319159
-0.00587004
0.0779017
-0.133295
-0.281456
-0.204122
-0.396807
-0.425894
-0.575723
-0.126529
-0.234045
-0.278517
-0.0166106
-0.150457
-0.387057
-0.22995
-0.292093
0.197174
0.194903
0.203392
0.209945
0.156746
0.15898
0.131573
0.147974
0.135114
0.0821421
0.114855
0.0932659
0.00598836
0.00950421
0.00451705
-0.00477436
-0.0133146
0.00323655
0.00922524
0.0140015
-0.00145142
-0.00128812
-0.0187
-0.0131932
-0.485136
-0.599952
0.652562
0.625973
-0.207017
0.199423
0.205929
0.202523
0.207689
0.210585
0.211401
0.209221
0.205859
0.19415
0.19627
0.192183
0.192797
-0.413859
-0.557482
-0.382005
-0.440101
-0.192296
0.316636
0.0661173
-0.00474701
-0.00188127
0.212459
0.626424
0.406577
0.42536
0.466453
-0.678362
-0.283369
-0.607332
-0.0147147
-0.199479
0.371076
0.424645
0.449064
0.392716
0.34225
-0.573638
0.206332
-0.356289
-0.314196
-0.119317
-0.220283
0.425346
0.360709
0.367552
0.389274
0.41305
0.364267
0.343081
0.341824
0.381287
0.385803
0.181931
-0.0264258
-0.0830174
-0.112175
0.349678
0.221929
0.273722
0.191892
0.198242
0.201227
0.199677
0.183063
0.189986
0.185869
0.191745
0.194055
0.203774
0.204066
0.199522
0.201706
-0.424451
-0.435568
-0.366607
-0.444708
-0.443052
-0.510874
-0.392132
-0.207084
-0.228481
-0.070713
-0.000608837
-0.257223
-0.378773
-0.349649
-0.335903
-0.134815
-0.0708854
-0.317949
-0.134739
-0.173317
-0.221641
-0.0105336
-0.0191948
-0.46502
-0.564756
-0.537087
-0.458832
-0.237738
-0.195972
-0.167498
-0.174539
-0.324718
-0.162914
-0.0946921
-0.494406
-0.57873
-0.563397
-0.459009
0.00258583
-0.00640851
-0.0176319
-0.0670811
-0.0399835
-0.0811384
0.192339
0.193193
0.192595
0.20672
0.218338
0.233988
0.19982
0.176195
0.169426
0.171317
0.147324
0.155974
0.152451
0.163908
0.182448
0.189591
0.189868
0.191748
0.176058
0.176692
0.166324
0.169676
0.14947
0.131558
0.120989
0.00436664
0.00420272
0.0018329
-0.00426657
0.00923607
0.00538886
-0.0356268
-0.00898965
-0.0163225
-0.0169498
-0.0543092
0.0150393
0.00737029
-0.398554
-0.322453
-0.503259
-0.534883
-0.610058
0.564684
0.661707
0.512205
0.283673
0.285375
0.50885
0.606517
0.272544
0.429883
0.467128
0.221782
0.477316
0.204502
0.203832
0.20131
0.200801
0.202235
-0.325278
-0.224145
-0.21933
-0.15942
-0.0500274
0.0737219
-0.0425684
-0.158701
-0.0152307
-0.0140359
0.310032
0.327133
0.271893
0.297422
0.297256
0.124952
0.199545
0.253165
0.211915
0.252284
0.271887
0.236082
0.263461
0.214167
0.171977
0.173632
0.120444
0.132881
0.112529
0.0968525
0.194296
0.172738
0.182012
0.175025
0.195165
0.222051
0.215993
0.241909
0.254859
0.181953
0.14469
0.150965
0.180386
0.14379
0.156248
0.169164
-0.11559
-0.18195
-0.146868
-0.431176
-0.337288
-0.41363
-0.445449
-0.334606
-0.0383432
-0.78815
-0.840223
-1.40183
0.144628
0.679228
0.383435
0.326117
0.411771
0.384728
0.38563
0.428155
0.429951
0.338564
0.35513
0.362323
0.306617
0.32893
0.365982
0.359962
0.196114
0.0634971
0.0522522
0.021875
-0.0948888
-0.0611972
0.138864
0.0559712
-0.0158852
0.00173979
0.161866
0.0610871
0.120428
0.148505
0.0689913
0.0454623
0.234803
0.305229
0.294913
0.268443
0.187588
0.197876
0.227254
0.261755
0.285061
0.322922
0.190926
0.196649
0.197961
0.195912
0.193093
0.195719
0.195612
0.198221
0.199303
0.202103
0.201011
-0.480513
-0.525768
-0.453375
-0.46331
-0.394387
-0.368077
-0.269931
-0.317056
-0.498363
-0.454282
-0.42329
-0.434718
-0.471091
-0.496607
-0.195091
-0.194614
-0.176456
-0.233096
-0.0611201
0.0842645
0.138535
0.0158731
-0.0660752
-0.0248832
-0.0185647
-0.468488
-0.387346
-0.536383
-0.358827
-0.382593
-0.286511
-0.221305
-0.245234
-0.3507
-0.350259
-0.1544
-0.0237919
-0.052734
-0.0703691
-0.0480477
-0.0300128
0.179757
0.174806
0.173077
0.169199
0.16818
0.178753
0.182943
0.185915
0.191101
0.191812
0.18308
0.186966
0.190416
-0.0122044
0.00810286
0.0133078
-0.0344926
-0.00810723
0.00573281
-0.011444
-0.194598
-0.268272
-0.273243
-0.319451
-0.44579
-0.389701
0.150627
0.130269
0.174305
0.356454
0.218822
0.140096
0.215999
0.315601
-0.0467071
0.136516
-0.029385
0.538321
0.423628
0.563807
0.200677
-0.102137
0.0491325
0.110945
-0.10661
-0.0259785
-0.00441972
-0.10241
-0.0732147
-0.054458
0.0488096
-0.0624582
-0.0892091
-0.343907
-0.15801
-0.0128723
-0.0284852
0.0952304
0.161408
-0.0989109
-0.166313
-0.190972
0.300137
0.320579
0.341221
0.308839
0.334999
0.257525
0.248944
0.268122
0.277614
0.271274
-1.12567
-0.84427
-1.75013
-1.04118
-0.60776
0.175169
0.13356
0.423156
0.316007
0.3928
0.375737
0.344251
0.304673
0.31252
0.350849
0.0566695
0.158817
0.134607
0.143044
0.0390721
-0.0140814
0.275365
0.26787
0.306462
0.328512
0.297224
0.332093
0.189291
0.188973
0.187729
0.185146
0.18359
0.185399
-0.310341
-0.39928
-0.250426
-0.268268
-0.316568
-0.373198
-0.00535433
-0.0396421
-0.0431076
-0.0401617
0.00866127
-0.0201455
-0.182692
-0.238366
-0.29772
-0.270041
-0.333779
-0.399172
-0.420982
-0.31687
-0.229526
-0.225506
0.0795142
0.314809
0.146644
0.30538
0.16941
0.204161
0.176901
0.169584
0.208244
0.0641596
0.13369
-0.0759958
-0.6049
-0.486756
0.397864
0.469749
0.246138
0.105771
-0.182585
-0.039663
0.226506
0.157604
0.201839
0.2715
0.264414
-0.335744
-0.296195
0.00410837
0.205647
-0.101103
-0.162419
-0.151319
0.00890384
-0.0363879
)
;

boundaryField
{
    wall-4
    {
        type            zeroGradient;
    }
    velocity-inlet-5
    {
        type            zeroGradient;
    }
    velocity-inlet-6
    {
        type            zeroGradient;
    }
    pressure-outlet-7
    {
        type            fixedValue;
        value           uniform 0;
    }
    wall-8
    {
        type            zeroGradient;
    }
    frontAndBackPlanes
    {
        type            empty;
    }
}


// ************************************************************************* //
