/*--------------------------------*- C++ -*----------------------------------*\
| =========                 |                                                 |
| \\      /  F ield         | OpenFOAM: The Open Source CFD Toolbox           |
|  \\    /   O peration     | Version:  4.0                                   |
|   \\  /    A nd           | Web:      www.OpenFOAM.org                      |
|    \\/     M anipulation  |                                                 |
\*---------------------------------------------------------------------------*/
FoamFile
{
    version     2.0;
    format      ascii;
    class       surfaceScalarField;
    location    "22";
    object      phi;
}
// * * * * * * * * * * * * * * * * * * * * * * * * * * * * * * * * * * * * * //

dimensions      [0 3 -1 0 0 0 0];

internalField   nonuniform List<scalar> 
1300
(
3.75095
5.62643
-5.88951
3.75095
-5.82301
5.62643
-4.57161
4.57161
-1.20369
1.20369
1.87657
1.87438
-2.94996
2.94996
-3.08363
3.08363
-2.6042
2.6042
-5.24645
5.24645
-5.06833
5.06833
4.67423
-4.67423
-4.68606
4.68606
-1.66565
1.66565
-3.98899
3.98899
3.16951
-3.16951
-4.46121
4.46121
-0.416783
0.416783
-0.552952
4.30391
3.198
3.198
-2.31212
2.31212
-4.85708
4.85708
6.21789
-6.21789
8.91378
-8.91378
-3.02426
-3.42928
1.35205
-8.32752
-4.47096
-4.47096
-8.44024
8.44024
-2.81381
2.81262
2.94247
-2.94247
-1.8468
1.8468
-4.48176
-0.0898501
-4.48176
4.58685
-0.0152406
4.58685
-1.33658
0.132887
-1.33658
4.02854
-4.02854
1.04371
0.159985
1.04371
3.06474
-3.06474
-1.8771
3.75367
1.87386
-1.87163
6.17554
-1.87932
3.7537
-5.82208
5.82208
-3.21286
0.262891
-3.21286
2.64109
0.308874
2.64109
-5.36299
5.36299
-2.60921
-0.474428
-2.60921
3.54965
-0.46602
3.54965
2.84716
-2.84716
-2.65128
0.0470791
-2.65128
2.557
0.0472058
2.557
0.353715
5.27272
-5.98014
8.79276
-5.27272
0.026264
5.20839
0.0380606
5.20839
-5.10594
0.0376036
-5.10594
5.01001
0.0583228
5.01001
4.75471
-0.0804844
4.75471
-4.79481
0.120583
-4.79481
-3.33237
-3.54856
-4.77218
0.0861157
-4.77218
-1.67251
0.00685879
-1.67251
1.64363
0.0220213
1.64363
-3.45885
3.45885
-4.37366
0.384663
-4.37366
3.12347
0.0460449
3.12347
1.86904
1.88191
5.62
-5.62
2.45048
-4.34464
-0.116565
-4.34464
-4.57725
-4.33652
4.57725
-0.116044
-0.698271
0.281488
-0.698271
3.16028
0.0377163
3.16028
2.47886
0.0781404
-2.47886
0.166735
3.30686
-3.30686
1.68634
0.625782
1.68634
-5.57025
5.57025
4.94993
0.060079
-4.94993
0.092854
6.15687
0.0610195
6.15687
-6.19977
-0.0181235
-6.19977
3.3044
-6.73367
-3.48548
4.57089
0.115169
-4.57089
0.0999289
2.91007
0.0323926
2.91007
-2.91915
2.91915
-2.98179
0.0393196
-2.98179
-2.24369
0.39689
-2.24369
1.544
0.3028
1.544
-4.33786
-0.143906
-4.33786
-4.5151
0.141446
4.5151
0.0717499
1.01007
-1.01007
-1.47607
0.13949
-1.47607
-4.17536
-0.162499
4.17536
-0.14682
-3.89022
-0.138313
-3.89022
-3.02306
0.0412691
3.02306
0.0416839
3.11286
0.047421
-3.11286
0.0481242
-1.87092
3.75283
-1.88004
3.75389
-5.42315
-0.398931
-5.42315
6.13012
-0.308039
6.13012
3.59641
0.392586
-3.59641
0.383552
2.41938
0.221713
2.41938
-5.81978
0.456786
-5.81978
5.01175
0.351242
5.01175
2.38113
0.0382477
-2.38113
-0.228076
3.90781
-0.358152
3.90781
2.89598
-0.048822
2.89598
-2.83553
-0.0116245
-2.83553
2.78848
-2.78848
2.71308
0.0754023
-2.71308
0.0617992
-11.1327
11.1146
-0.0351171
-11.0976
5.17327
5.17327
4.16972
0.58499
4.16972
-5.00648
0.21167
-5.00648
3.27551
-6.76099
3.52578
-6.85815
3.51724
-11.8448
3.38248
-6.93104
4.86881
-4.86881
4.82576
0.0430543
-4.82576
0.0535844
-1.69242
0.0199148
-1.69242
-2.84091
-0.617935
-2.84091
4.11898
-0.660131
4.11898
-3.02943
3.02943
-3.0777
0.0482619
3.0777
0.0457716
4.17249
-0.264689
-4.17249
-0.172147
0.884676
0.159033
-0.884676
0.186405
3.51209
-0.205233
3.51209
-3.11174
-0.195117
-3.11174
-1.696
0.00358362
1.696
-0.00966341
-5.81887
0.24862
-5.81887
-11.1908
0.0932435
-11.1527
-6.10653
-6.10653
2.33372
11.1265
-2.86978
0.0342519
2.86978
0.0402896
2.9757
0.0537364
-2.9757
0.0565449
-2.85865
0.0701615
2.85865
0.0605064
-2.6372
0.393515
-2.6372
-1.13252
1.13252
-1.32223
0.189712
1.32223
0.221769
1.24318
-0.233113
1.24318
1.58021
0.0634114
-1.58021
0.104143
-3.79108
-0.0991465
-3.79108
6.16939
-0.0392655
6.16939
-2.98177
-0.129969
2.98177
-0.0857891
-0.0332888
11.1478
-5.13998
0.0340464
5.13998
-11.2089
11.2429
-3.27109
0.633884
3.27109
0.898635
5.29344
0.27681
-5.29344
0.286961
4.93809
0.0736604
-4.93809
0.0692712
-2.34991
-0.491003
-2.34991
-4.85408
-0.569071
4.85408
-0.7351
-11.4747
-0.202167
11.6768
-11.4163
6.02104
0.135833
-6.02104
11.3787
-1.00116
-0.00891069
1.00116
0.131362
1.52064
-0.277464
1.52064
3.6905
-0.178414
-3.6905
-0.100574
-6.12198
0.302201
6.12198
0.0474089
-1.91358
-0.436326
1.91358
-0.392939
-4.26639
4.3041
1.90915
-3.22165
-3.51202
-7.55818
1.85181
1.90102
4.30229
-7.3676
-4.47715
-7.26767
7.26944
-6.98248
-9.30404
9.22356
7.49769
-7.636
-5.78728
5.83305
6.48143
-6.43975
1.87837
1.8753
7.679
-7.4161
-15.5719
15.173
6.27252
-6.74695
16.1903
-15.7335
-16.2674
16.3411
-5.77141
5.81848
-6.65936
6.64774
-6.84558
6.75979
-3.1402
-3.71795
9.85128
-9.76517
11.1483
-11.2649
-8.43976
8.82443
3.38158
0.922523
3.429
-1.88251
3.76088
-1.87119
3.78034
3.54157
-6.68177
3.21942
-6.73144
5.92933
5.21897
-5.81329
-1.74489
-5.91126
5.94365
-5.8307
5.8912
8.92272
-9.01257
-1.88533
3.76063
-1.86856
3.76958
-3.42643
-2.36084
3.38039
0.921902
5.92541
3.92588
-6.04057
-1.2271
-7.76052
7.5821
-8.01112
7.816
-0.447411
5.82013
-5.37272
4.40967
-1.54393
7.36406
5.72551
5.93718
5.86683
-5.59002
1.11565
-6.48836
-6.39551
-2.55629
2.69578
2.54329
-2.38331
5.89294
1.60475
5.74612
-5.52173
-2.11427
-5.62088
3.82188
2.01117
3.87014
4.07616
2.40527
4.11743
3.03075
-3.03511
0.00435973
-3.05617
6.08691
0.725523
-5.41701
-4.49511
4.33208
3.34692
4.64095
-5.4231
-1.99301
-5.03955
-9.43619
-6.13574
-10.0053
10.0512
5.12179
9.74317
-12.0652
12.1126
4.84809
1.42444
4.38207
-3.66025
-3.0867
-3.88833
12.7369
-1.53702
-11.1999
-10.0768
-6.19059
9.72558
6.4647
9.29744
7.04363
9.36671
3.68081
9.05613
-10.1455
3.95492
-3.8722
-1.89921
-3.8104
3.74663
2.07185
3.79384
-4.18352
-2.47585
-4.14926
-4.20708
-2.6385
4.2559
2.39184
-4.30123
-3.70989
4.43119
2.3286
3.30787
-7.78502
3.62318
-7.34113
-7.07564
-2.68952
-7.02206
4.42598
2.27452
-6.7005
-2.25578
10.7321
-5.51315
8.98723
-6.55708
-4.70778
-6.72923
-6.80066
-1.6391
-6.65922
-8.7874
8.2964
-9.11478
8.45465
12.7169
-5.71852
-6.99843
-3.96778
-2.47197
3.91966
-0.490655
-3.7117
3.71606
0.049173
3.82952
4.75204
4.26138
-3.88958
-1.94112
-3.83304
3.83589
2.05531
3.90605
6.75813
2.16459
6.74289
-6.40548
-2.60708
-6.54939
9.06764
-8.67075
2.96803
-2.96445
5.23406
2.58194
-5.02883
-2.73169
6.05236
-3.03812
-3.01423
-12.2138
10.6003
1.61347
-4.84976
-0.440094
-0.023311
-5.50873
-3.79531
5.38815
0.549034
11.1494
7.35407
-5.51236
5.76098
6.16447
6.22455
-0.170962
5.79861
-5.16472
5.31036
-2.31909
-2.99128
5.25995
-5.42245
-1.28944
-5.19291
3.90347
0.323676
1.82032
-1.53883
-2.0506
-0.505689
-1.94646
1.55236
0.990929
1.71139
0.983644
1.71213
-2.93652
0.538285
2.39824
-1.95288
-1.84502
-3.60359
-1.05448
4.65807
5.56939
2.01271
-5.46881
-0.152065
2.7249
-2.70288
-0.730464
-2.87313
2.15232
-2.88279
-3.53228
-1.90446
5.43674
-3.37113
-0.461904
3.3174
0.552743
-3.82281
-2.08845
3.78349
0.333946
-3.12176
6.18825
-3.06649
-5.06288
2.52894
3.55797
4.54011
-4.7893
2.44443
2.34487
-1.23133
3.26521
1.37574
3.48692
-6.9626
4.96959
5.69813
3.1263
-6.09071
1.05117
-5.91143
8.46897
-7.23108
-1.23789
3.84329
4.62568
7.21387
5.50307
-5.77709
12.991
-1.07408
-6.157
6.98551
-3.85921
4.77306
-8.63227
-10.2761
4.11913
-9.56682
11.9454
-2.37859
-3.55529
-8.5099
13.1221
-1.19401
-11.9281
8.54916
-5.67599
-3.19098
8.86698
-7.21302
6.27768
-2.30978
-3.9679
-10.4011
-5.33236
10.0989
2.01366
-9.08481
13.0397
-0.0286872
4.64213
-0.260062
4.28398
3.86557
-6.43877
2.5732
3.34745
-5.65723
1.47401
-7.91277
-5.55927
10.1528
-4.59358
-8.24879
-8.03524
-0.213552
1.33555
11.7042
-8.37918
5.64753
2.73165
3.312
0.59405
-3.3874
-0.422997
0.345731
4.51074
-4.85647
4.13957
4.21771
3.41119
1.09955
3.82111
2.12254
-3.8614
-0.287867
-4.11832
1.47982
-1.72648
-3.64868
5.1285
-4.07648
0.427798
-2.72437
-3.56271
6.28708
-4.62357
3.04209
3.14616
5.0974
-4.95226
1.38955
-2.44363
-2.50863
2.68693
-4.41342
1.95897
3.16953
4.28757
0.577676
5.36505
4.7878
-7.63957
0.298438
8.71368
-7.48658
2.44056
6.92616
-8.08809
0.0528486
-6.96921
0.705608
-6.21876
-5.99489
5.10529
-6.74439
-3.52698
6.1643
0.578584
-6.23605
-0.423162
-5.95178
-2.83562
-6.38811
-3.05953
-6.05525
-8.83662
-1.62321
-7.2134
6.67319
-6.60958
-3.39568
7.34468
1.10997
-7.33038
7.32147
-7.38455
7.10709
0.0949394
3.62112
4.35632
1.88435
-2.38979
4.27415
-5.01809
7.18268
-8.36022
3.34213
3.87776
-6.48484
-4.48246
5.02919
4.03845
5.33199
8.94705
-10.5677
1.62064
-10.9016
12.144
-1.24241
-16.6417
5.74004
-7.69461
2.70789
0.26014
2.72781
0.675239
2.40918
-3.08442
-2.28921
-2.29887
-2.27566
-3.31513
5.59078
1.10605
-3.3334
2.22735
-3.4551
4.56115
-0.0741904
-3.25921
5.22457
-2.81539
5.48471
-3.52929
1.95542
3.23697
5.53487
-2.2979
4.25639
-1.67445
1.79043
-4.08833
-1.5247
-3.02428
5.09613
-3.26279
3.69059
-0.239659
3.93025
-4.02058
0.982453
-0.609384
3.60833
3.77506
4.2001
-3.10055
2.90246
-4.57691
-1.18587
-3.99923
-0.829699
-0.313161
-3.75181
4.06497
6.09185
-6.40501
-5.26286
9.58753
-4.32468
7.74149
-5.41086
-2.33062
-4.26222
-4.40853
3.86871
1.9299
9.67139
0.229171
-5.64004
-4.93555
-4.03692
3.23439
2.07597
-2.04355
3.65702
2.06686
-0.246543
0.5733
1.13809
1.92416
-1.35086
0.214331
1.70983
-1.3245
2.00367
0.721228
-2.06708
0.120627
-1.32468
3.477
1.07356
-2.06449
0.713633
1.07577
-3.39486
4.72173
-2.42128
-2.30044
5.7975
1.13559
-3.55688
4.05731
-3.73364
2.26943
-3.32391
-1.28745
-5.02109
-3.41634
-2.46727
4.69462
-3.12352
5.13623
1.16235
-4.98417
6.14651
-3.51774
1.61328
-3.03062
3.75185
-1.04341
-1.98721
2.75157
2.68516
-2.89597
0.0228462
-0.1444
2.30236
-2.44676
-0.580426
-2.53331
-4.57132
4.90527
-2.1081
4.55253
2.16605
-1.91294
6.46547
1.81442
-3.72736
-3.24846
-3.71036
-1.38249
3.15762
-0.80474
-3.08359
-4.77264
3.04534
0.441582
-6.96347
7.13854
-0.17507
-3.61656
-1.35303
5.19632
-5.82409
0.166857
-4.35009
2.78846
4.1642
4.60578
-11.4839
-0.444176
-6.36214
1.08861
-7.45075
5.71428
-3.67247
7.7916
-10.4285
7.03278
-9.31849
6.55371
-0.897039
7.26826
-4.69506
3.93166
-9.26401
-7.25036
5.51155
-4.08712
5.25149
-4.75117
10.0027
-4.77986
6.86303
3.13963
-1.848
-4.88122
-6.0011
4.1531
0.861933
5.14591
4.95159
-2.82905
4.66372
2.22554
-4.66917
-2.18787
-6.53292
1.86374
-3.38675
-1.91653
3.78028
3.18087
3.77492
1.27165
-3.35192
7.63149
-7.84505
-3.03791
-2.95698
6.39648
-2.24338
4.53006
-7.48704
-1.68869
4.8985
-0.866459
-4.03204
0.820018
-4.347
1.62254
-5.96954
5.12185
-5.54501
2.1509
-9.8455
-5.17948
-5.04812
-2.21466
-5.16989
-7.6585
5.44385
-1.91846
5.40301
-8.67371
7.80725
-3.47031
8.91416
-5.36367
-1.02443
5.75661
1.35047
10.2646
0.132074
-4.61453
-1.83598
3.97047
-2.13449
1.39841
-3.61974
0.350731
2.44901
3.34849
-6.35247
-0.13237
-4.7469
-3.91793
7.95638
5.66961
11.7615
1.19377
9.16186
-1.20549
10.3556
4.12651
4.34828
-2.97658
4.59723
1.08839
4.43052
-0.860624
2.81604
1.86719
1.87404
0.828833
2.30097
1.4741
3.28342
0.198996
-2.09988
4.64525
-8.68216
-0.994788
-8.09717
1.12638
5.84204
-4.71566
3.16766
-1.09168
1.03317
0.178411
-1.80382
1.62541
-2.81287
-2.05036
-0.340537
-1.64249
2.35613
1.83451
-2.01559
-0.797277
0.318717
-3.73506
3.00519
-2.98235
-0.297184
5.84933
-2.70251
0.255748
-1.08923
-2.27756
-2.78325
2.66262
6.17464
0.290836
3.10815
5.1961
3.10766
0.278606
3.59822
-5.97681
-4.31455
-6.42099
-0.706702
4.48962
3.54357
8.16062
6.6832
4.43981
-3.04723
-10.8923
6.4907
-1.89348
5.24829
-1.21625
-4.75329
4.95572
2.22696
-5.5343
-0.0107055
-4.764
-6.65748
-0.577554
8.38481
-9.68708
8.66265
5.82702
1.38638
-4.36921
-0.678903
4.1795
0.168775
10.5244
-1.18499
-6.82916
8.01415
-4.65705
3.66226
0.854144
2.80288
2.47955
1.38787
-5.44129
-10.1569
-1.87083
-1.52403
-4.17127
0.486796
-2.3213
6.29558
-2.63332
3.96495
5.38084
6.41401
-2.17737
-4.22764
6.50205
-2.5371
3.87691
)
;

boundaryField
{
    wall-4
    {
        type            calculated;
        value           uniform 0;
    }
    velocity-inlet-5
    {
        type            calculated;
        value           uniform -3.75095;
    }
    velocity-inlet-6
    {
        type            calculated;
        value           uniform -5.62643;
    }
    pressure-outlet-7
    {
        type            calculated;
        value           nonuniform List<scalar> 8(5.88951 5.82301 6.45354 6.97547 6.88093 6.78988 6.80129 6.89972);
    }
    wall-8
    {
        type            calculated;
        value           uniform 0;
    }
    frontAndBackPlanes
    {
        type            empty;
        value           nonuniform 0();
    }
}


// ************************************************************************* //
