/*--------------------------------*- C++ -*----------------------------------*\
| =========                 |                                                 |
| \\      /  F ield         | OpenFOAM: The Open Source CFD Toolbox           |
|  \\    /   O peration     | Version:  4.0                                   |
|   \\  /    A nd           | Web:      www.OpenFOAM.org                      |
|    \\/     M anipulation  |                                                 |
\*---------------------------------------------------------------------------*/
FoamFile
{
    version     2.0;
    format      ascii;
    class       volVectorField;
    location    "22";
    object      U;
}
// * * * * * * * * * * * * * * * * * * * * * * * * * * * * * * * * * * * * * //

dimensions      [0 1 -1 0 0 0 0];

internalField   nonuniform List<vector> 
918
(
(0.985063 -0.000623237 0)
(0.00476991 2.96626 0)
(-0.0144803 1.55869 0)
(0.979826 0.00241727 0)
(-0.00233027 1.54824 5.88302e-21)
(-0.00704261 2.9489 -8.06369e-19)
(0.852066 1.21277 3.00604e-19)
(0.40229 0.188806 -3.615e-21)
(0.999905 -0.000318073 0)
(0.0737462 0.8633 0)
(-0.0655378 0.892779 0)
(0.749822 -0.0119723 0)
(0.011488 2.93016 0)
(0.00207235 2.79492 0)
(-0.0190574 3.16242 4.76007e-19)
(-0.00322492 1.42623 8.72733e-21)
(0.52076 0.0835895 2.269e-19)
(0.17477 1.23511 2.60441e-19)
(0.962299 0.00390085 0)
(0.00484397 1.28232 0)
(0.133098 0.23589 -1.9272e-19)
(1.00221 -0.00521008 0)
(1.00077 -0.0100961 0)
(0.976055 -0.00647566 0)
(0.660086 -0.0337866 0)
(0.0187483 2.63187 0)
(-0.0150434 2.91028 2.6486e-19)
(-0.0236064 1.57785 0)
(-0.0326879 1.72263 0)
(-0.0241995 1.57025 0)
(-0.0018458 1.86029 0)
(0.00640072 1.57561 -4.56273e-21)
(-0.00189776 1.441 0)
(-0.0204647 2.9875 -2.81752e-23)
(-0.0169916 3.00541 6.40577e-19)
(0.00201754 3.00017 0)
(0.87001 -0.00972991 0)
(0.428175 0.968181 -8.96958e-21)
(0.824205 1.23126 -4.09693e-19)
(0.97051 1.06356 3.88325e-19)
(0.691701 1.33161 -6.95451e-20)
(0.693474 1.31984 3.93166e-19)
(0.438443 0.277695 3.5249e-21)
(0.429975 0.177795 0)
(1.16032 0.584347 0)
(0.408201 0.285625 1.65232e-20)
(0.356689 0.185343 -1.71569e-20)
(0.919471 -0.00729647 0)
(1.0003 0.000129511 0)
(0.99991 0.000342635 0)
(1.00341 -0.00769347 0)
(1.00096 -0.00101152 0)
(1.0002 2.76213e-06 0)
(0.0548617 1.79167 -1.20808e-19)
(0.0203226 0.990044 0)
(0.0780957 0.953428 0)
(0.0269703 0.893184 0)
(0.00426709 0.762434 0)
(-0.056534 1.57458 0)
(-0.0716471 0.930564 0)
(-0.0445616 0.744698 0)
(-0.0576938 1.07714 0)
(-0.0479632 1.03813 0)
(0.833154 -0.00567254 0)
(0.85517 0.0120318 0)
(0.765286 -0.000295087 0)
(0.847129 0.0151558 0)
(0.737974 -0.0131944 0)
(0.0153493 3.00065 2.89058e-19)
(0.0117099 3.00826 0)
(0.00650586 3.00261 0)
(0.014142 2.99717 3.18665e-24)
(0.00839631 2.95852 -4.36776e-19)
(0.015203 2.98194 0)
(0.0111723 2.9037 0)
(0.025677 2.93036 5.56161e-25)
(0.00465957 2.82496 0)
(0.0317898 2.91551 0)
(-0.00619431 2.74401 0)
(0.306969 3.55894 0)
(-0.145947 3.63676 0)
(0.137739 3.25476 -4.39382e-19)
(-0.00943283 2.99105 0)
(-0.0272141 1.83512 0)
(0.0142258 1.60908 -8.60656e-21)
(-0.000260378 1.42402 1.41438e-20)
(0.581846 0.158222 -7.81521e-20)
(0.518158 0.0624487 -7.60469e-20)
(0.56904 0.182027 -2.3558e-19)
(0.509646 0.113105 -1.59013e-19)
(0.17802 0.877116 0)
(0.253738 1.37754 -2.66941e-19)
(0.374058 1.34131 4.41698e-19)
(0.987562 0.0082862 0)
(0.941587 0.00557706 0)
(1.00031 0.000425872 0)
(1.00326 0.00948509 0)
(1.00285 0.00785552 -4.45292e-19)
(0.991809 0.00985469 3.39873e-19)
(-0.0124783 1.43835 0)
(-0.00958958 1.2597 0)
(-0.0335534 1.58667 0)
(-0.019783 1.49014 0)
(0.00230741 1.31655 0)
(0.201349 0.248562 5.95181e-20)
(0.244946 0.228669 0)
(0.993396 -0.00812461 0)
(0.954545 -0.00599132 0)
(0.817661 0.0241414 0)
(0.786337 0.0371302 0)
(0.717781 -0.0267311 0)
(0.984624 -0.00108515 0)
(0.72523 0.0571531 0)
(0.573219 -0.011044 3.03275e-19)
(-0.0356274 2.86586 1.32223e-19)
(0.0438995 2.90742 0)
(0.0568495 2.88302 0)
(-0.00555368 2.69618 0)
(-0.0136711 2.9852 2.42119e-19)
(-0.0183071 2.89541 0)
(-0.0158327 2.98805 -7.70013e-19)
(-0.0133214 2.92536 2.67141e-19)
(-0.0320925 1.8084 0)
(-0.0273054 1.80995 0)
(0.00672041 1.58597 2.20672e-22)
(0.00798219 1.56232 0)
(-0.00684668 1.43463 0)
(0.937052 -0.00724097 0)
(0.855612 -0.00992474 0)
(0.862379 0.00774521 0)
(0.948526 -0.00772399 0)
(0.882942 -0.00815163 0)
(0.538709 1.1646 6.83874e-21)
(0.591195 1.2066 0)
(0.390276 0.914647 2.4919e-21)
(0.330767 0.773066 0)
(0.933368 1.09864 -1.11273e-19)
(1.04275 0.898189 2.29789e-19)
(0.379679 1.4242 0)
(0.545364 1.39822 0)
(0.541894 1.35831 0)
(0.110649 0.167588 -5.49091e-20)
(0.483972 0.263152 0)
(0.468163 0.160799 4.51846e-20)
(1.01807 0.950813 0)
(1.08919 0.798863 0)
(1.11164 0.74183 -2.02874e-19)
(1.13945 0.637773 0)
(1.18773 0.419699 2.4896e-20)
(0.957369 -0.00868324 0)
(0.962129 -0.010318 0)
(0.901641 -0.00737533 0)
(0.984363 -0.00912757 0)
(0.974687 -0.00936659 0)
(0.93735 -0.00592248 0)
(1.00015 0.0021554 0)
(1.00085 0.0013592 0)
(0.999886 0.000915806 0)
(0.0226423 2.00839 7.23477e-20)
(0.103269 1.69436 0)
(0.00804706 2.07678 8.3141e-20)
(0.0179018 1.86438 -4.59746e-20)
(0.132579 1.22955 -2.15705e-19)
(0.0665942 1.07546 0)
(0.0942224 1.08232 0)
(0.0136824 0.832432 0)
(0.00585212 0.690983 0)
(-0.0772119 1.82919 1.00605e-21)
(-0.0873508 1.72976 0)
(0.00879781 1.72387 6.2462e-20)
(-0.0498049 1.43985 -1.204e-19)
(0.00299664 0.780798 0)
(-0.034834 0.818388 0)
(-0.0211117 0.681558 0)
(-0.0519503 1.21115 0)
(-0.0354467 1.13767 0)
(0.927995 0.0153504 0)
(0.853068 -0.0018508 0)
(0.913647 0.00406643 0)
(0.829963 -0.0101338 0)
(0.806392 0.00578176 0)
(0.900584 0.0165714 0)
(0.877403 0.016119 0)
(0.780547 0.00470632 0)
(0.00444462 3.06447 -2.39169e-21)
(0.0166831 3.05778 0)
(0.0153947 2.96907 0)
(0.00891094 2.87632 0)
(0.966689 3.9986 0)
(1.31249 3.25946 4.90792e-19)
(0.0704581 3.08184 0)
(-0.0246126 2.91078 0)
(-0.0349268 1.80221 0)
(-0.0383696 1.82816 0)
(-0.0322862 1.81219 0)
(-0.0108885 1.84866 2.05276e-21)
(-0.0298877 1.84718 0)
(-0.0195552 1.84088 0)
(0.0091915 1.40811 -1.69257e-20)
(0.0439282 1.62436 -3.56614e-20)
(0.0273726 1.61872 -1.43394e-20)
(0.00609027 1.41896 0)
(0.615208 0.128248 1.15314e-19)
(0.535466 0.0293253 -1.12421e-19)
(0.269433 1.51543 0)
(0.22675 0.646398 -8.33549e-20)
(0.173324 1.61147 -2.76878e-19)
(0.215882 1.14206 2.77651e-19)
(0.902443 0.00603411 0)
(0.967543 0.0105447 0)
(0.974631 0.0107569 0)
(0.923646 0.00615676 0)
(-0.0410979 1.31938 0)
(-0.0230139 1.39491 0)
(-0.0243895 1.20776 0)
(0.367727 0.285634 1.52246e-19)
(0.309492 0.267664 -1.85851e-19)
(0.31045 0.209362 0)
(1.10955 0.0860306 -1.29629e-21)
(1.09153 0.0395876 0)
(1.02083 0.0389524 0)
(0.923411 0.0044895 0)
(0.638883 0.0966592 0)
(0.667558 0.0702127 -4.88656e-19)
(0.55335 0.0112797 1.86645e-19)
(0.00964319 2.98271 1.68271e-19)
(-0.0316667 2.8687 2.0125e-20)
(0.00194684 3.04958 -5.17434e-21)
(0.0207024 3.0433 1.92909e-19)
(-0.0153825 2.99628 8.88818e-21)
(-0.0127733 2.94944 -3.60797e-23)
(-0.0175543 3.01154 -1.67817e-19)
(0.0141615 3.02325 1.20733e-19)
(0.00663901 3.03663 -1.92603e-19)
(0.924298 -0.00257586 0)
(0.935242 -0.00307946 0)
(0.838254 -0.00812246 0)
(0.956798 0.0113257 0)
(0.943426 0.0131261 0)
(0.88172 0.00618809 0)
(0.918165 0.0150499 0)
(0.927144 0.0150654 0)
(0.837002 0.00685637 0)
(0.758874 1.43613 1.48459e-19)
(0.803331 1.52968 0)
(0.256648 0.407581 1.24655e-20)
(0.204139 0.633345 1.00036e-19)
(0.300919 0.739785 -5.67927e-20)
(0.258089 0.618364 1.03054e-19)
(0.292322 0.724328 3.06703e-19)
(0.109175 0.202934 8.46577e-20)
(0.545962 0.216418 1.70348e-19)
(0.513628 0.243263 4.2248e-20)
(0.493704 0.143902 8.59484e-20)
(1.17901 0.475008 1.18134e-19)
(1.19427 0.271692 1.23989e-19)
(-0.0552901 2.09699 1.3509e-20)
(-0.0302556 1.87871 0)
(0.973099 0.0303812 0)
(0.939608 0.0193499 0)
(0.88172 -0.00328135 0)
(0.0108895 3.0743 0)
(0.0206323 2.94403 3.27226e-19)
(0.0172307 2.95626 0)
(0.00657989 2.85075 -3.26114e-19)
(0.00567058 3.09167 7.53307e-20)
(0.00602308 3.08218 0)
(0.889786 1.8353 -1.03593e-19)
(1.27703 2.39049 2.32035e-19)
(0.870129 1.94059 -5.89422e-19)
(0.0207221 2.98394 -1.23025e-19)
(0.0371588 3.00658 0)
(-0.0320961 2.88181 0)
(0.0692987 1.64293 3.0342e-21)
(0.0638689 1.65584 1.13462e-19)
(0.0367175 1.41596 -5.21412e-21)
(0.282477 1.33602 2.67919e-19)
(0.18997 0.440521 -1.83286e-19)
(0.0525291 1.93965 1.89848e-19)
(0.147055 1.83178 -2.42583e-19)
(0.157074 1.42047 3.8216e-20)
(0.00320389 3.11767 -4.36078e-19)
(0.0168017 3.11774 4.90109e-19)
(-0.00941303 2.98071 2.09207e-19)
(-0.00326713 2.97796 -1.84596e-19)
(-0.0217682 2.88268 -2.13186e-19)
(0.00779521 3.09816 -5.51883e-19)
(0.000980935 3.10644 5.5266e-19)
(0.230783 0.642149 0)
(0.187221 0.638614 -1.93154e-19)
(0.147369 0.253309 8.67676e-20)
(0.315325 0.835255 2.54322e-19)
(0.162238 0.234536 -3.90378e-19)
(1.19181 0.176462 -2.13046e-20)
(1.19352 0.319186 0)
(1.17805 0.127394 4.84434e-20)
(-0.04967 1.97319 8.23221e-22)
(-0.0476312 2.04781 0)
(-0.0556332 1.84269 0)
(0.33758 1.20947 -9.74617e-20)
(0.350672 1.02784 -2.07457e-19)
(0.175702 0.317929 3.55929e-19)
(1.00547 -0.011362 0)
(1.00745 -0.00744634 8.17032e-20)
(-0.0329951 1.78708 0)
(-0.0413611 1.79087 0)
(1.00201 0.00341492 7.90413e-22)
(1.00366 0.00986479 1.66832e-19)
(-0.0156329 1.86002 -2.73009e-21)
(-0.0102885 1.86493 0)
(0.0384327 3.1828 4.76514e-20)
(0.391624 3.49293 0)
(1.13412 0.63554 2.5482e-20)
(1.01351 0.0133187 -7.63374e-22)
(1.02065 -0.0110895 0)
(1.00176 -2.92298e-05 1.97589e-23)
(0.152792 1.29791 0)
(0.178489 2.56166 0)
(-0.219834 1.12221 0)
(-0.219886 2.64626 -8.5106e-20)
(-0.211515 2.32748 -1.28813e-20)
(1.00791 0.0146463 1.31294e-21)
(1.05215 0.00221801 0)
(1.07571 0.031719 0)
(-0.0423314 1.82767 0)
(-0.033889 1.94127 0)
(-0.0745512 1.71267 0)
(0.312757 1.45191 -1.77753e-19)
(1.01111 -0.00993606 0)
(1.00935 -0.0156988 0)
(1.00249 0.000424287 1.03513e-19)
(1.00537 -0.00489491 -1.2319e-19)
(1.00125 -0.00110115 0)
(-0.0561163 1.80958 0)
(-0.0402817 1.78447 0)
(-0.0426553 1.80001 0)
(-0.0612346 1.71925 0)
(-0.0359484 1.75098 0)
(-0.0447106 1.7431 0)
(1.03357 -0.00979179 0)
(1.02191 0.0163931 -4.12552e-22)
(0.790291 1.24927 2.04048e-19)
(1.00215 0.000311357 -1.0316e-19)
(1.004 0.00531315 1.2397e-19)
(1.00121 0.00213085 0)
(1.01353 0.0104194 1.00472e-19)
(1.00859 0.00857459 -1.24829e-19)
(1.00932 0.0155567 0)
(-0.0322718 1.93579 0)
(-0.0239455 1.89638 -2.71657e-21)
(-0.0202851 1.90144 2.99421e-21)
(1.19143 0.249177 -2.34906e-20)
(1.1296 0.0840276 0)
(0.0530785 3.07633 -2.17712e-19)
(0.0682572 2.84949 -1.72237e-20)
(0.149763 3.19702 3.50381e-19)
(0.144729 3.2269 7.29805e-22)
(0.137141 3.24156 0)
(0.0205006 3.1379 4.79354e-20)
(0.0805063 3.1624 2.09521e-19)
(0.0725888 3.18865 -9.37614e-20)
(0.0249229 3.12893 0)
(0.668213 0.319548 0)
(0.595409 0.364919 0)
(1.08772 0.656816 -9.87728e-20)
(1.11365 0.797263 1.53231e-19)
(1.14802 0.543834 0)
(1.19766 0.49062 0)
(1.01644 0.0133427 -1.88118e-19)
(1.01497 0.0146561 2.34823e-19)
(1.025 -0.0106579 0)
(1.02309 -0.0129384 0)
(1.00676 0.00253446 0)
(1.01027 0.00334037 0)
(1.00468 0.00149953 0)
(1.00985 0.0060031 0)
(1.00819 0.00650766 0)
(1.0043 0.00408151 0)
(0.169923 1.29432 0)
(0.149071 1.16763 0)
(0.179787 1.37713 0)
(0.130799 1.36604 0)
(0.152447 2.57792 0)
(0.191949 2.62937 -9.37202e-20)
(0.100207 2.63367 0)
(0.0935017 2.62873 8.93294e-21)
(-0.0155469 2.70602 8.22405e-20)
(-0.196609 1.18257 0)
(-0.203591 1.19848 0)
(-0.184442 1.1146 0)
(-0.0873364 0.966835 0)
(-0.311323 2.33482 1.51801e-19)
(-0.266651 2.46667 -7.40085e-20)
(-0.219913 2.64342 -1.1388e-19)
(-0.210076 2.56205 0)
(-0.199794 2.31766 3.71605e-20)
(-0.113268 2.21894 4.58726e-20)
(-0.361887 2.30183 -1.38808e-19)
(-0.330395 2.40616 9.53712e-20)
(-0.298988 2.51168 1.4556e-19)
(1.01812 0.0280482 1.83783e-19)
(1.01186 0.0160231 -2.27124e-19)
(1.00924 0.0237648 -1.91326e-19)
(0.99181 0.0105316 2.45341e-19)
(1.05247 0.0041541 0)
(1.03958 -0.0160699 0)
(1.07248 0.0386827 0)
(1.05751 0.015994 0)
(1.05572 0.010572 0)
(1.10956 0.0794341 0)
(1.0852 0.0490364 0)
(1.08948 0.039372 0)
(-0.0374303 1.86435 -5.12586e-22)
(-0.0560985 1.84863 0)
(-0.038537 1.85103 0)
(-0.0418375 1.9794 -1.46857e-21)
(-0.0286006 2.00226 3.06164e-22)
(-0.100807 1.81797 2.95712e-21)
(-0.0674035 1.80616 -2.98107e-21)
(-0.0872935 1.74904 0)
(-0.0643957 1.77608 0)
(-0.0585418 1.78003 0)
(-0.100712 1.6809 0)
(-0.0757783 1.6131 0)
(0.382565 1.47163 3.388e-19)
(0.421016 1.48739 1.33099e-19)
(0.584103 2.42363 -6.41458e-20)
(0.413362 2.51629 1.83158e-19)
(0.349231 2.09118 -1.92586e-20)
(1.02087 -0.0087115 0)
(1.01524 -0.0101457 0)
(1.01475 -0.0160747 0)
(1.00767 -0.00139842 0)
(1.00473 -0.0014768 0)
(1.00761 -0.00465846 0)
(1.00907 -0.00378703 0)
(1.01397 -0.0046522 0)
(1.02347 0.0158316 1.79142e-19)
(1.01827 0.0164633 -2.28645e-19)
(1.02512 0.0200718 -1.78924e-19)
(1.02017 0.0219074 2.25065e-19)
(0.762518 1.30121 0)
(0.699238 1.35722 2.47135e-19)
(0.857284 1.20472 1.43286e-19)
(0.915007 1.14845 -1.90599e-19)
(1.1508 2.6114 -2.33287e-19)
(0.838282 0.102717 1.18902e-19)
(1.1226 0.106205 0)
(1.17747 0.187072 2.22738e-20)
(1.16613 0.151129 9.37479e-22)
(0.983404 0.122916 0)
(0.168569 2.96221 3.99721e-20)
(0.125881 2.86941 -3.00418e-19)
(0.0392835 2.36679 1.9937e-19)
(0.103441 0.100595 -7.86909e-20)
(0.339157 3.4326 -1.81393e-19)
(0.198707 3.32558 0)
(0.23092 3.36548 2.36066e-19)
(0.262469 3.0443 -2.82008e-19)
(0.366544 3.20604 0)
(0.00593809 3.12056 1.1171e-20)
(0.016925 3.12918 -1.45298e-19)
(0.0148115 3.12497 2.13093e-19)
(0.0368104 3.14028 0)
(0.0352041 3.1512 0)
(1.19084 2.65365 0)
(0.529158 0.855455 -9.47399e-20)
(1.0417 0.970152 -7.8714e-20)
(0.945576 1.05784 0)
(0.790129 0.935411 1.99391e-20)
(1.02947 0.864995 1.12072e-20)
(0.385847 0.448688 -2.22044e-19)
(0.700177 0.337242 -8.76466e-21)
(0.690458 0.274439 9.07776e-20)
(0.604701 0.406926 7.19498e-21)
(0.542275 0.373256 -2.96292e-19)
(0.673758 0.360248 0)
(0.706041 0.423884 1.48652e-19)
(0.706464 0.418634 0)
(0.630916 0.399617 0)
(0.621263 0.322542 0)
(0.770171 0.586308 5.44232e-20)
(1.18191 0.272912 8.68346e-21)
(1.19181 0.397937 0)
(1.21224 0.347856 0)
(0.767353 0.197649 1.36162e-19)
(0.823272 0.529618 -7.48419e-20)
(0.738158 0.49991 1.22573e-19)
(0.919246 0.416498 -1.14906e-19)
(1.02017 0.0147011 1.23038e-19)
(1.01826 0.0141877 -1.25959e-19)
(1.01548 0.0166462 0)
(1.03471 -0.00674456 0)
(1.02909 -0.00968171 -1.12976e-19)
(1.02725 -0.0128353 1.11974e-19)
(1.02516 0.00831091 0)
(1.02425 0.0117991 0)
(1.01121 0.00375572 0)
(1.01431 0.00894733 0)
(1.01489 0.00328694 0)
(1.01402 0.00209457 0)
(0.166102 1.13989 0)
(0.111142 0.994593 0)
(0.19522 1.39232 1.46349e-19)
(0.279951 1.45172 1.04372e-19)
(0.193257 1.43119 2.3137e-19)
(0.207054 1.43459 -3.71173e-19)
(0.18254 1.39711 0)
(0.12971 1.5905 1.01604e-19)
(0.1421 1.57526 0)
(0.340852 2.03689 2.78319e-20)
(0.357051 2.38839 8.9231e-20)
(0.155407 1.45889 -8.89083e-20)
(0.246945 1.36237 7.7208e-20)
(0.191146 1.37568 -6.18757e-20)
(0.256194 1.31699 1.24951e-19)
(0.215039 1.57927 0)
(0.272304 1.61071 -7.70168e-20)
(0.0547285 2.42779 5.68555e-20)
(-0.0215792 2.71163 0)
(0.0909965 2.45115 -8.31592e-20)
(0.0576691 2.52517 0)
(0.070829 2.65154 -1.08342e-20)
(0.0136968 2.71142 0)
(-0.326821 1.48448 1.94166e-19)
(-0.282419 1.66034 0)
(-0.130563 1.28801 0)
(-0.237972 1.25647 -2.18499e-19)
(-0.202445 2.68667 -3.89879e-20)
(-0.0903638 2.7571 -1.18758e-19)
(-0.156134 2.71802 -6.7953e-22)
(-0.481957 2.10008 -3.48519e-20)
(-0.478136 2.0555 -5.46909e-20)
(-0.184713 1.31433 0)
(-0.135076 1.34044 0)
(0.0753477 1.8541 -2.90658e-19)
(-0.0255592 1.43606 -3.19897e-19)
(-0.0603323 1.65739 4.01527e-19)
(0.202363 1.8389 0)
(-0.108204 1.90847 -2.65459e-21)
(-0.0921087 1.95675 -1.33321e-21)
(-0.111838 1.9968 1.40078e-21)
(-0.433517 1.97438 4.20866e-20)
(-0.202186 2.1482 4.45831e-21)
(-0.240749 2.2261 -3.16814e-20)
(1.0228 0.0248756 -1.20359e-19)
(1.02035 0.0267168 1.21017e-19)
(1.01654 0.0226841 0)
(1.00846 0.048661 1.74862e-19)
(0.994509 0.0347642 -2.04808e-19)
(0.963781 0.0191848 2.37689e-19)
(1.00748 0.0825514 -2.27622e-20)
(1.03981 -0.00858592 0)
(1.04278 -0.00971684 1.01965e-19)
(1.03428 -0.0185997 -1.01842e-19)
(1.05934 0.0423602 -5.58049e-21)
(1.05668 0.0230286 4.97832e-20)
(1.05739 0.0491309 0)
(1.05228 0.041672 -1.84807e-20)
(1.04055 0.0278592 0)
(1.03663 0.0257176 0)
(1.02728 0.0118853 0)
(1.02646 0.0161392 0)
(1.04791 0.0269367 3.84965e-20)
(1.04659 0.0183975 -8.69628e-20)
(1.05253 0.0254304 -3.91762e-20)
(1.05054 0.0267278 -4.51576e-20)
(1.057 0.0575455 8.1728e-20)
(1.07645 0.0515533 0)
(1.08431 0.0925544 0)
(-0.102011 1.89925 -5.97211e-24)
(-0.0723506 1.85227 -4.39653e-22)
(-0.0810427 1.86255 0)
(-0.0680008 1.90595 6.04029e-24)
(-0.0464786 1.8713 9.08688e-22)
(-0.0542992 1.88736 -1.29527e-22)
(-0.0887009 2.18105 -4.90119e-20)
(-0.121016 2.0414 4.70415e-22)
(-0.147653 2.0925 -3.80984e-21)
(-0.0429424 2.06883 1.10199e-20)
(-0.0462933 2.09321 -1.24432e-20)
(-0.135823 1.78053 -1.47454e-22)
(-0.128593 1.82389 4.51049e-21)
(0.376577 1.38871 -1.67782e-19)
(0.367576 1.3676 -1.60386e-19)
(0.646458 1.41046 -2.3854e-19)
(0.519235 1.4767 -1.28859e-19)
(0.573143 1.45066 0)
(0.579787 2.39543 5.37527e-20)
(0.645832 2.38168 9.49983e-20)
(0.40892 2.49381 3.49509e-20)
(0.411006 2.55667 -6.00084e-20)
(0.527998 2.51874 1.08697e-19)
(0.536196 2.43659 0)
(0.485921 2.48108 -1.5056e-19)
(0.233637 2.56388 2.62915e-19)
(0.348622 2.54691 -3.22332e-20)
(0.284784 2.62203 -3.8971e-19)
(0.90587 2.37094 9.94762e-20)
(0.810523 2.36097 0)
(1.01028 0.000270142 4.05732e-21)
(1.0148 -0.00574703 -3.37575e-21)
(1.01796 -0.0038132 -6.02233e-20)
(1.01502 -0.000739722 6.07613e-20)
(1.01221 0.00103537 0)
(0.618294 1.25191 0)
(0.615885 1.15924 0)
(0.71818 1.06421 0)
(0.62317 1.10297 0)
(1.17967 2.62412 2.58773e-20)
(1.06284 2.36229 0)
(0.850448 2.23635 -6.91763e-22)
(0.816168 2.48251 0)
(0.910997 2.56669 7.91684e-21)
(0.948099 2.52394 -5.15322e-21)
(0.843723 0.147866 0)
(0.817422 0.141744 3.3969e-20)
(0.926041 0.123361 1.76363e-19)
(0.865208 0.118437 -7.02443e-20)
(0.852357 0.0627481 -2.11969e-19)
(1.03173 0.216042 -1.06936e-19)
(0.957405 0.279791 -6.3691e-21)
(0.900842 0.267485 1.5986e-19)
(0.970537 0.200209 1.20181e-19)
(0.936811 0.156539 -2.2217e-19)
(0.912822 0.168645 2.85981e-20)
(0.934857 0.228762 -5.63282e-20)
(0.91496 0.192569 0)
(0.970259 0.157067 1.0644e-19)
(1.01363 0.164758 0)
(1.00574 0.194533 0)
(1.07087 0.109703 3.51398e-20)
(1.04219 0.158317 -5.47527e-21)
(1.02877 0.217681 -1.83947e-20)
(1.06735 0.192674 0)
(1.02641 0.0273807 9.21427e-20)
(1.0445 0.0469033 1.08388e-19)
(1.04202 0.0315614 -9.05636e-20)
(1.04061 0.0521751 -7.31369e-20)
(1.01958 0.0538397 -1.23324e-19)
(0.975084 0.123203 0)
(0.99004 0.0773884 0)
(0.970614 0.0435622 -8.55513e-20)
(0.934207 0.0572744 3.53033e-20)
(1.02619 0.0819207 1.03807e-19)
(1.04357 0.107953 -1.06057e-19)
(1.05018 0.133252 9.5019e-20)
(1.01087 0.126642 0)
(1.05121 0.0971053 0)
(1.04114 0.0775504 -4.42019e-20)
(1.03738 0.0807477 -8.31507e-20)
(0.57898 1.0858 -3.83085e-20)
(0.629713 1.42415 7.43545e-20)
(1.16161 2.75655 4.24314e-20)
(1.2372 3.08553 -3.37517e-20)
(1.24612 2.72273 2.62293e-19)
(1.27844 2.7212 -1.6036e-19)
(1.16352 2.36126 8.78003e-21)
(1.22485 2.98051 8.20392e-20)
(1.24462 2.95061 -8.82372e-20)
(1.2429 3.24264 -1.40244e-19)
(1.36694 2.9819 1.63624e-19)
(1.30857 2.90497 0)
(0.525375 0.861785 -5.41921e-21)
(0.139282 1.27945 1.64763e-19)
(0.544176 0.522879 1.48307e-19)
(0.356666 0.284698 1.56917e-19)
(0.551693 0.423069 1.66953e-19)
(0.572054 0.480169 -2.63497e-19)
(0.564493 0.510027 2.1649e-19)
(0.515936 0.452282 -8.78759e-20)
(0.453802 0.379451 1.99718e-19)
(0.7752 0.252836 -7.61411e-20)
(0.725801 0.299601 0)
(0.721234 0.238524 4.27294e-21)
(0.727767 0.509128 7.60937e-20)
(0.701974 0.474903 -2.82209e-19)
(0.618073 0.483903 6.44433e-21)
(0.638757 0.460158 0)
(0.642239 0.730943 6.40796e-20)
(0.800247 0.755551 2.08455e-20)
(0.715581 0.839873 -2.78962e-20)
(0.838608 0.786216 -6.88686e-21)
(0.867366 0.819048 5.37169e-21)
(0.874026 0.822461 -5.51979e-21)
(0.816901 0.618766 -9.32046e-20)
(0.88554 0.686759 6.41905e-21)
(0.939333 0.694064 0)
(0.920757 0.664176 -8.63011e-21)
(0.98373 0.29875 2.54846e-20)
(1.07836 0.276434 7.20371e-21)
(1.01524 0.250709 4.3019e-20)
(0.970735 0.346296 -5.94541e-20)
(1.01716 0.400566 0)
(1.05178 0.386074 0)
(0.890938 0.347593 2.87632e-21)
(0.830415 0.286745 0)
(0.853228 0.276104 8.1661e-20)
(0.888004 0.273509 -3.524e-21)
(0.906944 0.417376 3.15314e-19)
(0.869922 0.477481 8.07738e-20)
(0.873546 0.44463 -1.03827e-19)
(0.799872 0.431028 1.11451e-19)
(0.788305 0.43257 7.53064e-20)
(0.754123 0.415576 -7.33219e-20)
(1.02664 -0.00141838 9.69488e-20)
(1.01977 -0.000406106 0)
(1.0184 0.000403755 6.49567e-20)
(1.02155 -0.00169854 -1.45544e-19)
(1.02182 0.00399097 7.07232e-20)
(1.02101 0.0102682 -1.49072e-19)
(1.02225 0.0096433 0)
(1.02105 0.0102626 -3.12349e-20)
(1.01633 0.00756752 7.81714e-20)
(1.01711 0.0102867 -3.97139e-20)
(1.01779 0.00954492 2.91354e-20)
(-0.0582328 1.02294 0)
(-0.0594108 1.22228 0)
(0.0581568 1.03026 0)
(0.0176007 0.90201 0)
(0.234804 1.34534 -3.43845e-19)
(0.230542 1.30525 1.12258e-19)
(0.236438 1.50339 6.96103e-20)
(0.208449 1.36834 -7.80613e-20)
(0.135796 1.52088 2.94406e-19)
(0.177402 1.47701 -2.20081e-19)
(0.279419 1.32348 -9.6287e-21)
(0.240913 1.22089 2.34307e-19)
(0.158769 1.16874 3.5487e-20)
(0.10045 1.17981 3.68838e-20)
(0.114365 2.41162 8.84785e-20)
(0.106572 2.43739 0)
(0.173557 2.09349 -8.3529e-21)
(0.177707 1.75865 -4.14241e-20)
(0.230893 2.08133 9.67923e-21)
(0.196598 2.45278 0)
(0.27478 2.41081 -5.32452e-20)
(0.302462 2.41479 3.77008e-20)
(0.197371 2.02273 1.86521e-20)
(0.141077 2.19025 5.78006e-21)
(0.150871 2.32792 0)
(-0.00989342 2.26248 2.85195e-19)
(-0.197381 2.62797 2.42616e-19)
(-0.156329 2.53312 0)
(-0.0245028 2.62207 -1.34088e-20)
(0.0285267 2.49319 -1.29236e-19)
(-0.360217 1.41961 -1.87737e-20)
(-0.316726 1.45399 2.79088e-19)
(-0.327943 1.54186 -5.55218e-20)
(-0.443793 1.54935 -1.21891e-19)
(-0.374474 1.46457 0)
(-0.307486 1.52323 0)
(-0.132384 1.58199 -1.38978e-20)
(-0.218183 1.61914 5.39742e-21)
(-0.28021 1.5386 0)
(-0.167315 1.44826 -1.29722e-20)
(-0.0980098 1.49117 2.20922e-20)
(1.03933 0.00105205 0)
(1.04122 -0.00214265 -9.46998e-21)
(1.0459 0.0131718 -6.93061e-20)
(1.05106 0.011048 0)
(1.0511 0.00817995 0)
(1.0398 0.00428165 -2.71446e-21)
(1.03456 0.0051976 1.14814e-19)
(1.0359 0.0120645 1.40054e-19)
(1.02855 0.0200626 0)
(1.02789 0.0200315 0)
(1.04197 0.0208215 6.987e-20)
(1.03477 0.0222019 0)
(1.03193 0.0214188 0)
(-0.223707 1.93629 0)
(-0.165444 1.83125 7.30864e-22)
(-0.173966 1.90405 1.09001e-21)
(-0.188766 1.65602 0)
(-0.215967 1.79658 -6.29607e-21)
(-0.163046 1.75622 -1.79801e-21)
(-0.157707 1.71286 0)
(0.385244 1.68412 0)
(0.36877 1.29205 2.57492e-19)
(0.303702 1.34782 0)
(0.423354 1.27234 -3.36804e-19)
(0.46407 1.4404 0)
(0.440296 1.3894 1.59027e-19)
(1.01782 2.70127 -1.87854e-21)
(0.938505 2.40987 -1.22031e-19)
(0.866387 2.15466 1.61477e-19)
(0.832977 2.35518 5.54607e-20)
(0.833413 2.52339 0)
(0.89329 2.5149 0)
(0.868224 2.37283 0)
(0.900899 2.32026 -1.9341e-19)
(0.686184 2.49518 -1.36636e-20)
(0.797821 2.49242 -6.32775e-21)
(0.801552 2.46068 5.01535e-21)
(0.675217 2.36178 0)
(0.777451 2.36055 0)
(0.73749 2.36811 -9.45635e-20)
(0.758754 2.50642 0)
(0.590593 1.09127 0)
(0.478885 0.934879 -4.60877e-22)
(0.540993 0.954565 -8.82747e-22)
(0.517342 1.05591 0)
(0.519984 1.01625 1.61479e-21)
(0.737547 0.868807 5.32514e-21)
(0.75395 0.995726 0)
(0.725868 0.939838 -2.32484e-20)
(0.602898 1.02985 0)
(0.610717 0.934341 0)
(1.16042 2.77117 1.99952e-20)
(1.13888 2.83683 4.94681e-20)
(0.940594 2.36257 -1.12959e-19)
(0.901002 2.33669 1.2103e-20)
(1.1208 2.73888 0)
(1.0695 2.70883 -1.49338e-20)
(1.07601 2.48468 -3.74185e-20)
(0.969491 2.22522 -1.3505e-20)
(0.48125 1.37467 0)
(0.484443 1.06478 3.35591e-20)
(0.537231 1.12935 0)
(0.857038 0.218253 0)
(0.818423 0.179371 0)
(0.780144 0.160455 0)
(0.849545 0.223458 -1.29062e-19)
(0.791828 0.217219 8.06194e-20)
(0.940865 0.05044 -7.32538e-20)
(0.951597 0.0995239 0)
(0.924454 0.104664 3.28116e-20)
(0.888933 0.082908 1.346e-19)
(0.881391 0.045963 -8.29846e-20)
(1.17637 3.3786 -4.19257e-19)
(1.22774 3.29527 0)
(1.14338 3.39668 -7.95856e-19)
(0.642031 3.55517 7.01351e-19)
(0.8545 3.11621 1.46097e-19)
(0.496954 0.88842 9.45583e-20)
(0.417688 0.877189 0)
(0.345991 0.564703 -3.40022e-20)
(0.44514 0.696829 1.55072e-19)
(0.546116 0.530413 -4.59771e-20)
(0.528156 0.552281 5.26974e-20)
(0.660801 0.526377 1.10599e-19)
(0.687132 0.536401 0)
(0.645622 0.620334 0)
(0.599034 0.548324 0)
(0.931446 0.581562 -1.80036e-20)
(0.872354 0.523838 -7.75125e-20)
(0.891752 0.555209 3.89706e-20)
(0.925313 0.497515 -5.77315e-20)
(1.02963 0.4638 0)
(1.01609 0.550814 -3.61564e-21)
(0.822291 0.391325 -1.66715e-19)
(0.825546 0.376481 -1.89178e-19)
(0.779134 0.3821 1.30124e-19)
(0.773902 0.360095 -1.45192e-19)
(0.82486 0.314781 -1.08963e-19)
(0.776791 0.316175 1.34242e-19)
(1.02594 0.00489652 -7.42477e-20)
(1.02578 0.00511333 1.53585e-19)
(1.03094 -0.00119717 9.19423e-20)
(1.03146 -0.000940359 -1.1093e-19)
(1.03492 0.000626758 0)
(1.0317 0.00236977 -1.80818e-19)
(0.188674 1.79317 -4.00239e-20)
(0.182366 1.74257 0)
(0.194686 1.78057 -2.21276e-19)
(0.183822 1.74863 2.0273e-19)
(0.216176 1.60719 -1.29466e-19)
(0.289175 1.61943 0)
(-0.405413 1.96397 0)
(-0.363554 1.72795 5.46048e-21)
(-0.304564 1.72566 -4.92265e-21)
(-0.251524 1.80863 1.6802e-21)
(-0.268786 1.96327 3.69063e-21)
(-0.308663 1.97453 -3.60706e-21)
(0.476874 1.38483 1.70792e-19)
(0.47563 1.39107 -1.80475e-19)
(0.43608 1.27407 1.69611e-19)
(0.425639 1.29404 -1.02281e-20)
(0.609143 1.28341 0)
(0.529986 1.36804 2.16531e-19)
(0.546618 1.38776 -2.09844e-19)
(0.444115 1.25929 -1.64299e-19)
(0.487621 1.21865 0)
(0.53171 1.17314 0)
(0.651789 2.45479 2.04939e-20)
(0.671313 2.47441 2.19905e-19)
(0.710816 2.49157 -1.50292e-19)
(0.624278 2.48455 -4.81146e-20)
(0.571353 2.57932 4.29493e-20)
(0.531569 2.55825 -1.23867e-19)
(0.955065 2.36531 -8.68753e-20)
(1.00008 2.38839 0)
(0.889377 2.13801 -1.19172e-19)
(1.03806 2.69057 0)
(1.0383 2.67781 0)
(0.614735 2.2724 7.66529e-20)
(1.02995 3.1657 1.89995e-19)
(0.89806 3.02778 -1.41931e-19)
(0.299297 0.967338 0)
(0.351008 0.823585 -6.4563e-20)
(0.478268 0.782824 -2.782e-20)
(0.420286 2.01363 0)
(0.483301 2.79347 -1.03437e-19)
(0.443154 2.58041 0)
(0.65924 0.660942 -1.31749e-19)
(0.734587 0.657023 1.63863e-19)
(0.769103 0.598679 -1.58339e-19)
(0.664264 0.626732 -1.94184e-20)
(0.714586 0.578144 -7.84356e-20)
(1.0154 2.77599 -1.4348e-19)
(1.04276 2.84283 1.32695e-19)
(0.667172 2.18058 4.30665e-20)
(0.589166 1.73804 -3.9616e-20)
(0.7154 1.92747 4.36002e-20)
(0.995305 2.48164 -2.54077e-20)
(0.997315 2.47537 -8.23186e-20)
(0.678679 1.9056 -3.40744e-21)
(0.463881 1.35701 -2.85915e-20)
)
;

boundaryField
{
    wall-4
    {
        type            noSlip;
    }
    velocity-inlet-5
    {
        type            fixedValue;
        value           uniform (1 0 0);
    }
    velocity-inlet-6
    {
        type            fixedValue;
        value           uniform (0 3 0);
    }
    pressure-outlet-7
    {
        type            zeroGradient;
    }
    wall-8
    {
        type            noSlip;
    }
    frontAndBackPlanes
    {
        type            empty;
    }
}


// ************************************************************************* //
