/*--------------------------------*- C++ -*----------------------------------*\
| =========                 |                                                 |
| \\      /  F ield         | OpenFOAM: The Open Source CFD Toolbox           |
|  \\    /   O peration     | Version:  4.0                                   |
|   \\  /    A nd           | Web:      www.OpenFOAM.org                      |
|    \\/     M anipulation  |                                                 |
\*---------------------------------------------------------------------------*/
FoamFile
{
    version     2.0;
    format      ascii;
    class       volVectorField;
    location    "48";
    object      U;
}
// * * * * * * * * * * * * * * * * * * * * * * * * * * * * * * * * * * * * * //

dimensions      [0 1 -1 0 0 0 0];

internalField   nonuniform List<vector> 
918
(
(0.985163 -0.000503701 0)
(0.00501349 2.96625 0)
(0.00769023 0.864471 0)
(0.979703 0.00214759 0)
(-0.0115721 2.06105 3.51339e-20)
(-0.00704465 2.94879 -2.50908e-18)
(0.812413 1.15039 4.35367e-19)
(0.223185 0.109857 -1.5663e-20)
(0.999907 -0.000282692 0)
(0.0622395 0.786762 0)
(0.0137596 0.593555 0)
(0.734708 -0.0172766 0)
(0.0110903 2.93039 0)
(0.00252378 2.79499 0)
(-0.0176039 3.15324 7.71646e-19)
(-0.020921 1.9087 -7.5765e-22)
(0.295903 0.0339249 1.03423e-18)
(0.187721 1.15951 3.08451e-19)
(0.962754 0.00501763 0)
(-0.00922343 0.526601 0)
(0.0322047 0.146864 -7.39586e-19)
(1.00198 -0.00497888 0)
(1.00022 -0.00978985 0)
(0.975729 -0.00643999 0)
(0.583123 -0.0381485 0)
(0.0153288 2.64074 0)
(-0.0149075 2.91002 9.26069e-19)
(0.00939209 0.928956 0)
(-0.00757102 1.17248 0)
(0.0105264 0.908155 0)
(-0.0137714 2.60956 0)
(-0.0010955 2.11638 -2.80574e-20)
(-0.0106175 1.88775 0)
(-0.0206143 2.9876 -9.03079e-23)
(-0.0166892 3.00529 1.95007e-18)
(0.00210038 3.00018 0)
(0.870972 -0.00957659 0)
(0.404997 0.937941 1.84094e-19)
(0.792717 1.16701 -4.91072e-19)
(0.941464 1.00814 5.32708e-19)
(0.664464 1.25872 -1.00442e-19)
(0.665595 1.24067 5.8084e-19)
(0.259707 0.179719 1.52806e-20)
(0.236731 0.083339 0)
(1.14146 0.553249 0)
(0.227691 0.171361 6.97294e-20)
(0.194753 0.108621 -7.23565e-20)
(0.919825 -0.00744373 0)
(1.00026 0.000156614 0)
(0.99991 0.000336286 0)
(1.00363 -0.00776777 0)
(1.00096 -0.000920821 0)
(1.00017 3.22269e-05 0)
(0.0758364 1.8166 -7.99312e-19)
(0.0298099 0.97797 0)
(0.0951713 0.857073 0)
(0.0132562 0.931646 0)
(0.0363961 0.717412 0)
(0.0112005 2.00333 0)
(0.000669346 0.831274 0)
(0.00861151 0.605836 0)
(0.000264328 0.819953 0)
(0.0122471 0.582755 0)
(0.839792 -0.01586 0)
(0.844459 0.0301027 0)
(0.767615 -0.00622576 0)
(0.812821 0.039804 0)
(0.704834 -0.0196313 0)
(0.0146883 3.0004 9.30644e-19)
(0.0114987 3.008 0)
(0.00611793 3.00277 0)
(0.0135323 2.99734 1.05671e-23)
(0.00797733 2.95848 -1.38317e-18)
(0.0144905 2.98207 0)
(0.0108422 2.9036 0)
(0.0245081 2.93089 2.1292e-24)
(0.00461447 2.82484 0)
(0.0302369 2.9164 0)
(-0.00517801 2.74501 0)
(0.307291 3.54875 0)
(-0.131753 3.62993 0)
(0.139062 3.24356 -7.18097e-19)
(-0.0129215 2.97996 0)
(-0.021744 1.99304 0)
(-0.00706448 2.16833 7.47269e-22)
(-0.0131893 1.91508 -1.05212e-20)
(0.396804 0.144153 -3.58276e-19)
(0.310108 0.0193803 -3.46832e-19)
(0.368809 0.15276 -1.07684e-18)
(0.274369 0.0413088 -7.07293e-19)
(0.225411 0.969 0)
(0.268991 1.3054 -3.62678e-19)
(0.362095 1.23677 6.04439e-19)
(0.987464 0.00855695 0)
(0.941911 0.00583475 0)
(1.0003 0.000578588 0)
(1.00286 0.00930652 0)
(1.00302 0.00846272 -2.77375e-18)
(0.991912 0.00969916 2.09464e-18)
(-0.00460526 0.805018 0)
(-0.00347433 0.532054 0)
(-0.0323826 0.989 0)
(-0.0193334 0.831744 0)
(0.0019155 0.519924 0)
(0.0555414 0.149541 2.28482e-19)
(0.119075 0.12407 0)
(0.993544 -0.00837821 0)
(0.954435 -0.00652392 0)
(0.7583 0.04666 0)
(0.693717 0.0572528 0)
(0.664261 -0.0316556 0)
(0.965426 -0.00797265 0)
(0.608538 0.0765875 0)
(0.444419 -0.0110804 1.54813e-18)
(-0.0372356 2.86234 6.92175e-19)
(0.0415762 2.90944 0)
(0.0537582 2.88571 0)
(-0.00446191 2.6999 0)
(-0.0132628 2.98524 8.7779e-19)
(-0.0179 2.89514 0)
(-0.01536 2.9881 -2.71979e-18)
(-0.0133489 2.9252 9.3061e-19)
(-0.0115804 1.34285 0)
(0.00942274 1.37332 0)
(-0.00739322 2.13636 3.2767e-22)
(-0.00567941 2.09642 0)
(-0.02337 1.89782 0)
(0.93824 -0.00755468 0)
(0.856849 -0.00984733 0)
(0.863341 0.00604226 0)
(0.949367 -0.00793185 0)
(0.883811 -0.00814471 0)
(0.516945 1.13134 -2.32342e-19)
(0.566152 1.18242 0)
(0.369204 0.882819 3.42473e-20)
(0.311412 0.741729 0)
(0.902171 1.04745 -1.46213e-19)
(1.01671 0.855152 2.93284e-19)
(0.35412 1.35478 0)
(0.520281 1.31894 0)
(0.541763 1.26753 0)
(0.117987 0.183894 -3.03132e-19)
(0.290927 0.171326 0)
(0.259126 0.0804316 1.99777e-19)
(0.988876 0.910774 0)
(1.06192 0.766073 0)
(1.08608 0.707268 -2.27411e-19)
(1.12131 0.612607 0)
(1.1731 0.399554 5.59219e-20)
(0.957617 -0.00878382 0)
(0.962434 -0.0100869 0)
(0.901605 -0.00794993 0)
(0.984182 -0.00916532 0)
(0.974669 -0.00936644 0)
(0.93709 -0.00636658 0)
(1.00019 0.00233579 0)
(1.0009 0.00141053 0)
(0.99991 0.000852325 0)
(0.0350255 2.06869 4.41828e-19)
(0.120057 1.75955 0)
(0.0171906 2.18334 6.85609e-19)
(0.0484382 1.87049 -5.76833e-19)
(0.102311 1.1676 -2.52407e-19)
(0.0449132 1.05381 0)
(0.143106 1.00922 0)
(0.00803403 0.890728 0)
(0.0144054 0.667234 0)
(-0.00128467 2.23585 -1.08558e-21)
(0.0202195 2.00764 0)
(-0.00152603 2.23842 -4.65877e-20)
(0.0119109 2.01323 7.99938e-20)
(0.00429534 0.862189 0)
(0.0023991 0.84378 0)
(0.00780511 0.632292 0)
(0.00624336 0.80843 0)
(0.00613036 0.567947 0)
(0.93674 0.00943235 0)
(0.847759 -0.0150577 0)
(0.926395 0.000105726 0)
(0.841205 -0.0129457 0)
(0.812013 0.000133085 0)
(0.900514 0.0207404 0)
(0.875915 0.025327 0)
(0.788874 -0.00261744 0)
(0.00578455 3.06492 -8.69993e-21)
(0.0166899 3.05775 0)
(0.0147175 2.96905 0)
(0.00868885 2.87621 0)
(0.924032 3.9639 0)
(1.23834 3.29702 9.29742e-19)
(0.0698422 3.07203 0)
(-0.028562 2.90384 0)
(-0.00330831 1.3912 0)
(-0.0232969 1.69725 0)
(-0.0109058 1.52845 0)
(-0.0287918 2.56495 -5.46213e-21)
(-0.010328 2.25099 0)
(-0.0178858 2.40154 0)
(0.00326753 1.94116 1.8681e-21)
(-0.00331744 2.23827 7.58833e-21)
(-0.00493766 2.20311 1.05573e-20)
(-0.00556343 1.92742 0)
(0.435687 0.126218 5.43733e-19)
(0.353156 0.010871 -5.33761e-19)
(0.260033 1.58079 0)
(0.27367 0.742918 -3.16825e-19)
(0.177082 1.66676 -1.0597e-18)
(0.226747 1.20891 1.06218e-18)
(0.902148 0.00643745 0)
(0.967464 0.011084 0)
(0.97459 0.0107868 0)
(0.923388 0.00644505 0)
(-0.00261602 0.807361 0)
(-0.000945187 0.804469 0)
(0.00706803 0.543212 0)
(0.19452 0.163144 6.43625e-19)
(0.162016 0.149039 -7.60857e-19)
(0.161036 0.114072 0)
(1.09086 0.0841212 2.8183e-20)
(1.07317 0.0382148 0)
(1.00753 0.0389839 0)
(0.903168 -0.00650791 0)
(0.477915 0.107455 0)
(0.529004 0.0876293 -2.47546e-18)
(0.395052 0.00662078 9.26955e-19)
(0.00894938 2.98123 7.40476e-19)
(-0.032301 2.86595 4.7802e-20)
(0.00360721 3.05024 -1.84022e-20)
(0.0201942 3.04337 6.54301e-19)
(-0.0150148 2.99658 3.05441e-20)
(-0.0129344 2.94946 -1.22904e-22)
(-0.0172543 3.01195 -5.6474e-19)
(0.0148331 3.02389 4.08637e-19)
(0.0073534 3.03678 -6.47564e-19)
(0.933192 -0.00150606 0)
(0.938938 -0.003447 0)
(0.845048 -0.00938366 0)
(0.95664 0.0118258 0)
(0.942878 0.0131068 0)
(0.881694 0.00598049 0)
(0.917584 0.0167613 0)
(0.926256 0.014824 0)
(0.838565 0.00309948 0)
(0.71978 1.40916 3.72029e-20)
(0.753109 1.51798 0)
(0.186474 0.324408 7.19705e-20)
(0.222953 0.664526 5.8106e-19)
(0.261876 0.722153 -3.38399e-19)
(0.265941 0.532557 6.72674e-19)
(0.339883 0.799505 1.59391e-18)
(0.13691 0.225541 3.74936e-19)
(0.341598 0.165618 7.50134e-19)
(0.317924 0.171093 1.95804e-19)
(0.26671 0.0609332 3.7252e-19)
(1.1623 0.457086 4.54614e-20)
(1.17987 0.253017 4.05016e-20)
(0.00935545 2.23042 2.67715e-19)
(0.0430758 1.93764 0)
(0.967071 0.0286622 0)
(0.940871 0.0134232 0)
(0.865923 -0.0184297 0)
(0.0111904 3.07419 0)
(0.0196669 2.94414 1.20113e-18)
(0.0164359 2.95627 0)
(0.00641351 2.85058 -1.1913e-18)
(0.00636755 3.0915 2.91705e-19)
(0.00719693 3.08262 0)
(0.786113 1.8201 -1.59173e-19)
(1.24626 2.49692 4.05282e-19)
(0.768162 1.95957 -1.23436e-18)
(0.019833 2.98074 -6.40513e-19)
(0.0356227 3.00025 0)
(-0.0342656 2.87723 0)
(-0.00326043 2.2183 -1.3119e-20)
(-0.00292541 2.24079 -2.1878e-20)
(0.00561119 1.97519 -7.70963e-21)
(0.276994 1.38852 1.03055e-18)
(0.232368 0.532092 -7.06877e-19)
(0.063367 1.99344 7.76796e-19)
(0.135843 1.88123 -9.23241e-19)
(0.180003 1.50117 9.29798e-20)
(0.00378797 3.11797 -1.76682e-18)
(0.0165647 3.1181 1.89038e-18)
(-0.00914726 2.98073 8.09719e-19)
(-0.00334288 2.97724 -7.67623e-19)
(-0.0213879 2.88137 -8.24675e-19)
(0.008668 3.09871 -2.16926e-18)
(0.00188588 3.10689 2.11802e-18)
(0.277141 0.689761 0)
(0.243148 0.679559 -1.20072e-18)
(0.0966318 0.225273 5.32706e-19)
(0.353569 0.92527 1.11312e-18)
(0.192101 0.270327 -1.71618e-18)
(1.1744 0.172044 6.87397e-20)
(1.18045 0.306885 0)
(1.16288 0.120608 -1.38095e-20)
(0.000362444 2.24724 -1.73232e-21)
(0.0037907 2.23971 0)
(0.028353 1.97354 0)
(0.34013 1.29719 -3.70641e-19)
(0.371351 1.13665 -8.02517e-19)
(0.206243 0.369679 1.42933e-18)
(1.00587 -0.0108501 0)
(1.00766 -0.00764532 5.11839e-19)
(-0.00910662 1.32076 0)
(-0.0253497 1.30772 0)
(1.00222 0.00350571 1.80678e-21)
(1.00367 0.00945532 1.04478e-18)
(-0.0169817 2.54844 6.91768e-21)
(-0.0231258 2.59123 0)
(0.035371 3.17783 4.27189e-19)
(0.39358 3.48838 0)
(1.16644 0.653092 -6.50722e-20)
(1.01289 0.013102 -2.1465e-21)
(1.02128 -0.0103502 0)
(1.0017 0.000119402 7.53897e-23)
(0.103068 1.35987 0)
(0.143967 2.57521 0)
(0.0226217 1.30212 0)
(0.0001272 2.62347 4.55014e-20)
(-0.0203287 2.58059 1.80512e-20)
(1.00054 0.0291576 2.50066e-21)
(1.06226 0.0040238 0)
(1.09584 0.0238511 0)
(-0.0221635 1.7366 0)
(-0.0173079 2.58798 0)
(0.0023733 1.3029 0)
(0.298207 1.47245 -1.61219e-19)
(1.01128 -0.00964134 0)
(1.00939 -0.014921 0)
(1.00237 0.000736253 6.54075e-19)
(1.00547 -0.0048178 -7.68731e-19)
(1.00118 -0.000993503 0)
(-0.00420137 1.45779 0)
(-0.00290331 1.36621 0)
(-0.000439433 1.41408 0)
(-3.19244e-05 1.29073 0)
(-0.00885137 1.2692 0)
(-0.00107314 1.25137 0)
(1.03475 -0.00626537 0)
(1.02021 0.0156671 -8.82926e-22)
(0.809464 1.26459 2.49372e-19)
(1.00224 0.000308974 -6.51572e-19)
(1.00407 0.0052485 7.62701e-19)
(1.00117 0.00206499 0)
(1.01278 0.0103187 6.48406e-19)
(1.008 0.00829487 -7.85536e-19)
(1.00858 0.0146859 0)
(-0.0230122 2.61764 0)
(-0.0247728 2.59827 -1.19469e-20)
(-0.0224065 2.61187 8.60726e-21)
(1.23123 0.262522 6.07928e-19)
(1.15792 0.0845893 0)
(0.042087 3.07762 -9.44628e-19)
(0.0650318 2.85503 -6.87344e-20)
(0.140796 3.19239 1.44616e-18)
(0.136101 3.22083 -2.09648e-19)
(0.134682 3.23259 0)
(0.0194315 3.13729 2.44396e-19)
(0.0755694 3.16032 9.31838e-19)
(0.0684397 3.18568 -4.60514e-19)
(0.0219208 3.12995 0)
(0.616251 0.278839 0)
(0.545266 0.322308 0)
(1.1358 0.688811 1.54483e-19)
(1.1313 0.809616 -1.45894e-19)
(1.19315 0.577 0)
(1.22158 0.512644 0)
(1.01611 0.0133306 -1.20874e-18)
(1.01499 0.0142618 1.51724e-18)
(1.02527 -0.00989576 0)
(1.02333 -0.0119127 0)
(1.00643 0.00258692 0)
(1.01041 0.00370284 0)
(1.00457 0.00184578 0)
(1.0098 0.00620321 0)
(1.00783 0.00594987 0)
(1.00451 0.00467269 0)
(0.0916385 1.35715 0)
(0.0857373 1.32724 0)
(0.122591 1.39318 0)
(0.137458 1.40347 0)
(0.144688 2.59999 0)
(0.185177 2.66824 -4.34859e-19)
(0.100309 2.65586 0)
(0.0846864 2.65809 2.09257e-19)
(0.0385791 2.67886 -1.71992e-19)
(0.0184233 1.31451 0)
(0.0210035 1.24759 0)
(0.0183724 1.32712 0)
(0.0326932 1.26867 0)
(0.00230621 1.98128 -1.32481e-20)
(-0.0189318 2.60857 -1.28991e-21)
(-0.00798107 2.66482 3.51702e-20)
(-0.0173939 2.6843 0)
(-0.0215354 2.61487 -4.07834e-20)
(-0.0216834 2.60981 -8.34858e-21)
(0.0116443 1.98002 1.24784e-20)
(-0.00578237 2.39506 1.73075e-21)
(-0.0125423 2.41737 -3.98915e-20)
(1.01065 0.0370489 1.23318e-18)
(1.00594 0.0161867 -1.52324e-18)
(1.00183 0.0441778 -1.23418e-18)
(0.978666 0.0220873 1.57469e-18)
(1.06348 0.00781717 0)
(1.04878 -0.00855892 0)
(1.09291 0.0339347 0)
(1.07331 0.0121681 0)
(1.07109 -8.73373e-05 0)
(1.13839 0.0811525 0)
(1.10978 0.0432904 0)
(1.11288 0.0312776 0)
(-0.0222819 2.43864 -1.11999e-22)
(-0.007712 2.01223 0)
(-0.0133402 2.2201 0)
(-0.0188699 2.60835 -3.71603e-21)
(-0.0167297 2.61711 -1.16229e-22)
(0.00901837 1.56556 -2.21015e-20)
(0.00223203 1.4951 2.24881e-20)
(-0.00572608 1.38512 0)
(-0.00831975 1.3911 0)
(-0.00962585 1.3853 0)
(0.00460858 1.30498 0)
(0.014154 1.23768 0)
(0.378135 1.48865 2.60814e-19)
(0.41875 1.49123 1.40595e-19)
(0.597989 2.45043 -2.41043e-19)
(0.400694 2.54536 7.11217e-19)
(0.35113 2.06461 7.31322e-20)
(1.021 -0.00817855 0)
(1.01547 -0.0097824 0)
(1.01489 -0.0155105 0)
(1.00744 -0.00114428 0)
(1.00494 -0.000933021 0)
(1.00776 -0.00474033 0)
(1.00925 -0.00368573 0)
(1.01418 -0.00444674 0)
(1.02095 0.0161635 1.18359e-18)
(1.01789 0.0156504 -1.51574e-18)
(1.02133 0.0181443 -1.19245e-18)
(1.01915 0.0168619 1.4899e-18)
(0.772131 1.31499 0)
(0.708067 1.36596 2.34182e-19)
(0.885889 1.21305 8.7188e-20)
(0.931332 1.15955 -1.15987e-19)
(1.15785 2.60614 2.90286e-19)
(0.789988 0.11657 6.04104e-19)
(1.1608 0.106423 0)
(1.20791 0.190832 -4.88611e-19)
(1.1936 0.15261 -2.07098e-20)
(1.00515 0.15229 0)
(0.13311 2.95944 5.54131e-19)
(0.110108 2.86538 -1.19974e-18)
(0.0196424 2.37516 8.05924e-19)
(0.0903406 -0.0698386 -3.56662e-19)
(0.338587 3.41794 -2.07131e-19)
(0.193407 3.3111 0)
(0.236461 3.35252 2.69756e-19)
(0.242824 3.03264 -1.83347e-18)
(0.337206 3.1916 0)
(0.00564596 3.12112 4.74559e-20)
(0.0161593 3.12972 -5.58284e-19)
(0.0141372 3.12579 8.21678e-19)
(0.0347594 3.14001 0)
(0.0331824 3.15036 0)
(1.21517 2.60457 0)
(0.544299 0.822418 -5.36052e-19)
(1.05631 0.982352 2.5483e-21)
(0.990972 1.06643 0)
(0.844507 0.968023 -1.15347e-19)
(1.0816 0.882405 2.84522e-20)
(0.353151 0.369088 -9.17808e-19)
(0.671973 0.312275 -2.021e-20)
(0.617305 0.21944 4.25932e-19)
(0.56891 0.356515 3.14094e-20)
(0.476499 0.317745 -1.2639e-18)
(0.639651 0.322362 0)
(0.700418 0.415274 7.23425e-19)
(0.709152 0.418044 0)
(0.602768 0.348018 0)
(0.554299 0.264546 0)
(0.810138 0.614612 4.26784e-19)
(1.23124 0.284682 -5.13547e-19)
(1.22957 0.422633 0)
(1.23969 0.362621 0)
(0.725113 0.189398 6.32297e-19)
(0.856753 0.539706 -3.92302e-19)
(0.753671 0.510078 6.95645e-19)
(0.951757 0.433189 -7.64273e-19)
(1.01952 0.014798 8.12891e-19)
(1.01774 0.014271 -8.17907e-19)
(1.01592 0.0154756 0)
(1.0362 -0.00580721 0)
(1.02972 -0.00849931 -7.66336e-19)
(1.02777 -0.0120407 7.58748e-19)
(1.02496 0.0101026 0)
(1.02354 0.0137691 0)
(1.01141 0.00409639 0)
(1.01425 0.00906248 0)
(1.01514 0.00403968 0)
(1.01424 0.00280748 0)
(0.0628799 1.34247 0)
(0.0650822 1.29736 0)
(0.143448 1.368 -3.4523e-21)
(0.271474 1.46933 8.30205e-20)
(0.164589 1.44051 1.7258e-19)
(0.196581 1.44749 -2.82723e-19)
(0.164612 1.39292 0)
(0.130629 1.5951 -8.26516e-20)
(0.114506 1.56899 0)
(0.348753 2.01677 -1.0632e-19)
(0.34473 2.34926 6.2721e-19)
(0.187536 1.45279 7.20681e-20)
(0.261419 1.38302 1.93133e-20)
(0.196514 1.37241 -1.5633e-20)
(0.272115 1.32589 -1.09393e-19)
(0.239893 1.57792 0)
(0.262386 1.61723 1.17483e-19)
(0.0295594 2.26493 -3.60456e-20)
(0.0425307 2.66856 0)
(0.0646394 2.40197 1.48894e-19)
(0.0608769 2.42233 0)
(0.068842 2.67142 -2.31786e-19)
(0.0487887 2.69876 0)
(0.0273637 1.41773 1.11836e-20)
(0.0337121 1.47011 0)
(0.0284161 1.38737 0)
(0.0240099 1.39002 -1.26184e-20)
(0.000532112 2.65125 -1.70237e-20)
(0.0291437 2.69686 1.95856e-19)
(0.0106835 2.72116 1.38132e-21)
(0.00347635 1.82829 1.2409e-20)
(-0.00306167 1.68061 4.51473e-21)
(0.0125852 1.29308 0)
(0.0181345 1.21971 0)
(0.0455981 1.57818 -1.84206e-21)
(0.0284982 1.45277 -8.07373e-21)
(0.0358059 1.51733 9.97338e-21)
(0.038291 1.60211 0)
(-0.0253495 2.26991 6.45587e-20)
(-0.026038 2.55369 -2.66051e-20)
(-0.0132426 2.44815 -5.46495e-23)
(-0.000362022 1.84463 -1.50407e-20)
(-0.0227021 2.49908 -4.82516e-21)
(-0.0189222 2.4413 2.75417e-20)
(1.01923 0.0209929 -8.07924e-19)
(1.01526 0.0267496 8.12821e-19)
(1.01429 0.0161893 0)
(1.01229 0.0708809 1.1415e-18)
(0.989797 0.0595951 -1.28439e-18)
(0.947197 0.0443078 1.43859e-18)
(1.01361 0.109061 -1.52169e-19)
(1.04252 -0.0058498 0)
(1.05073 -0.00161956 7.31334e-19)
(1.03881 -0.00996212 -7.32859e-19)
(1.07058 0.0415585 -4.35514e-20)
(1.06418 0.0230585 3.75391e-19)
(1.06319 0.0551964 0)
(1.05324 0.0486221 -1.34933e-19)
(1.03242 0.04173 0)
(1.02574 0.038197 0)
(1.02782 0.0130954 0)
(1.0241 0.0158581 0)
(1.03994 0.031816 2.77838e-19)
(1.03883 0.0264669 -6.13922e-19)
(1.05073 0.0333696 -2.9461e-19)
(1.04806 0.033391 -3.24357e-19)
(1.07042 0.0629362 6.33718e-19)
(1.09554 0.0511195 0)
(1.10368 0.0945631 0)
(-0.0196208 2.2756 4.10839e-20)
(-0.0171297 2.01645 -5.17537e-22)
(-0.0135351 2.02307 0)
(-0.0237627 2.4497 -4.08858e-20)
(-0.018198 2.40662 6.32034e-22)
(-0.0299716 2.47962 3.3538e-21)
(-0.019135 2.62368 6.86961e-21)
(-0.0196702 2.56577 -1.16284e-21)
(-0.0182658 2.51546 2.66108e-21)
(-0.014354 2.61919 9.61267e-22)
(-0.0194618 2.62034 3.10331e-22)
(0.00158995 1.48121 -3.70247e-22)
(0.0102803 1.61464 -1.77096e-20)
(0.363763 1.43469 -1.09213e-19)
(0.364911 1.37219 4.05808e-20)
(0.650239 1.41595 -2.26615e-19)
(0.518264 1.48331 -1.38161e-19)
(0.574922 1.44994 0)
(0.593729 2.4273 2.08706e-19)
(0.661398 2.42074 3.39423e-19)
(0.410942 2.51777 8.60903e-20)
(0.402741 2.54389 -6.23613e-19)
(0.511262 2.4873 6.18277e-19)
(0.553277 2.46422 0)
(0.489158 2.52024 -5.647e-19)
(0.247792 2.59312 1.16891e-18)
(0.354057 2.56643 -7.9591e-20)
(0.283939 2.65462 -1.61122e-18)
(0.946137 2.38089 7.30667e-19)
(0.837644 2.38539 0)
(1.01104 0.000463262 2.65351e-20)
(1.01528 -0.00545296 -2.15326e-20)
(1.01763 -0.00358456 -3.93319e-19)
(1.01498 -0.000929504 3.95389e-19)
(1.01241 0.00114221 0)
(0.639341 1.2875 0)
(0.66459 1.18447 0)
(0.775664 1.09646 0)
(0.657221 1.14803 0)
(1.18721 2.62022 5.91043e-20)
(1.07603 2.36703 0)
(0.838686 2.17857 3.8499e-21)
(0.826086 2.44361 0)
(0.923272 2.53528 -4.24938e-19)
(0.958896 2.49099 2.82766e-19)
(0.81071 0.174958 0)
(0.768564 0.148969 1.6411e-19)
(0.917887 0.146188 9.56073e-19)
(0.833134 0.148238 -3.57718e-19)
(0.796076 0.0842248 -1.10327e-18)
(1.07888 0.235206 -9.14552e-19)
(0.993841 0.293323 -1.60963e-20)
(0.92872 0.29515 8.77928e-19)
(1.00617 0.224446 7.33979e-19)
(0.951367 0.191321 -1.26874e-18)
(0.915983 0.193294 1.58561e-19)
(0.954985 0.257169 -3.37745e-19)
(0.930712 0.21893 0)
(0.992588 0.185986 6.26066e-19)
(1.04634 0.188178 0)
(1.04217 0.214909 0)
(1.105 0.118011 2.94719e-19)
(1.07026 0.176051 -1.44369e-20)
(1.07339 0.236357 -1.60644e-19)
(1.10191 0.202619 0)
(1.02284 0.0458751 6.268e-19)
(1.03993 0.0586407 7.81636e-19)
(1.0338 0.0443585 -6.21769e-19)
(1.04277 0.0653378 -5.23809e-19)
(1.01891 0.0731219 -8.02633e-19)
(0.988104 0.159069 0)
(0.998705 0.105461 0)
(0.965267 0.0672574 -5.12668e-19)
(0.911413 0.0905367 2.01372e-19)
(1.03894 0.104557 7.24472e-19)
(1.06875 0.120909 -8.50349e-19)
(1.07543 0.154012 7.59648e-19)
(1.02881 0.144125 0)
(1.07461 0.109325 0)
(1.05476 0.0904425 -3.47918e-19)
(1.04417 0.0952056 -5.92877e-19)
(0.583253 1.07348 1.4139e-19)
(0.611093 1.39978 -4.2902e-20)
(1.15735 2.73574 -2.29175e-19)
(1.22351 3.07742 1.933e-21)
(1.24946 2.71899 -1.32911e-19)
(1.27886 2.70259 -2.91324e-20)
(1.20702 2.34357 -1.05593e-20)
(1.21097 2.98152 -9.43794e-20)
(1.23065 2.9469 2.36251e-19)
(1.21421 3.23078 -1.43159e-19)
(1.37457 2.96259 1.97921e-19)
(1.36445 2.88086 0)
(0.553092 0.830268 -5.0438e-20)
(0.127813 1.24329 5.78214e-19)
(0.54053 0.414486 5.94226e-19)
(0.379626 0.163013 6.53829e-19)
(0.509494 0.354663 7.14136e-19)
(0.544546 0.456222 -1.15048e-18)
(0.546886 0.456552 9.40243e-19)
(0.487674 0.368854 -3.59865e-19)
(0.395093 0.300605 8.15572e-19)
(0.731685 0.256329 -3.62907e-19)
(0.692157 0.279704 0)
(0.66296 0.198108 8.25696e-21)
(0.734901 0.505324 3.80494e-19)
(0.706984 0.473689 -1.38719e-18)
(0.614828 0.455693 1.39587e-20)
(0.620784 0.444329 0)
(0.683276 0.720922 4.04777e-19)
(0.845031 0.772381 4.09114e-19)
(0.768144 0.85493 -4.78325e-19)
(0.890723 0.808716 -1.61601e-19)
(0.920612 0.852261 -3.98987e-20)
(0.928092 0.852019 4.08597e-20)
(0.855795 0.648287 -7.07251e-19)
(0.938031 0.703828 1.50129e-19)
(0.995492 0.718768 0)
(0.986553 0.69594 -2.04542e-19)
(1.02338 0.333193 2.20245e-19)
(1.14389 0.299814 3.00689e-19)
(1.06564 0.27235 3.74147e-19)
(1.00982 0.364943 -4.4392e-19)
(1.05964 0.430699 0)
(1.11811 0.415739 0)
(0.918525 0.366803 4.99185e-21)
(0.841553 0.298816 0)
(0.881593 0.294412 4.13754e-19)
(0.909328 0.302035 -5.62171e-21)
(0.945773 0.43582 2.13007e-18)
(0.904899 0.493246 5.50242e-19)
(0.907803 0.458622 -5.85464e-19)
(0.827903 0.443086 6.27025e-19)
(0.810707 0.43569 3.76533e-19)
(0.779919 0.417044 -3.70189e-19)
(1.02727 -0.00037849 6.55231e-19)
(1.02 -6.86271e-05 0)
(1.0185 0.000866355 4.2718e-19)
(1.0217 -0.00170295 -9.67683e-19)
(1.0223 0.00431074 4.70033e-19)
(1.02037 0.0112744 -9.84426e-19)
(1.02131 0.0106603 0)
(1.02061 0.0109065 -2.05132e-19)
(1.01597 0.007719 5.14624e-19)
(1.01669 0.0104829 -2.56774e-19)
(1.01739 0.009831 1.8911e-19)
(0.027935 1.31826 0)
(0.0335405 1.36056 0)
(0.043887 1.32033 0)
(0.0448459 1.27606 0)
(0.0705521 1.38306 -1.84567e-20)
(0.0777701 1.35318 1.27011e-20)
(0.110753 1.51787 -2.05579e-20)
(0.0935862 1.36458 9.86423e-22)
(0.0330597 1.45749 -1.22041e-20)
(0.0369784 1.45025 9.60103e-21)
(0.0620908 1.36764 -7.94138e-21)
(0.0542263 1.36951 2.22192e-20)
(0.047523 1.34535 3.12136e-21)
(0.0384204 1.36884 -1.63882e-22)
(0.105917 2.37317 -1.64521e-19)
(0.0949765 2.42002 0)
(0.169352 2.04838 1.12249e-19)
(0.108586 1.70891 4.50512e-20)
(0.23057 2.04401 -9.23307e-20)
(0.203405 2.43721 0)
(0.264306 2.38787 -6.1057e-19)
(0.303205 2.38575 4.32591e-19)
(0.229557 2.0043 -2.56786e-19)
(0.152952 2.16491 1.71977e-19)
(0.142349 2.27608 0)
(0.016552 1.87643 -2.22333e-20)
(-0.00159918 2.39452 -6.92861e-20)
(0.00429037 2.14934 0)
(0.010107 2.45739 -1.34876e-20)
(0.0258098 2.30234 2.26005e-20)
(0.0166119 1.39904 -2.90913e-21)
(0.0168868 1.38538 5.25526e-20)
(0.0175481 1.39008 -1.92269e-20)
(0.0209367 1.39037 -1.25213e-20)
(0.0266731 1.4216 0)
(0.0148909 1.37225 0)
(0.00866545 1.29177 -2.43769e-20)
(0.0126287 1.36272 6.25221e-21)
(0.0148527 1.36343 0)
(0.0113482 1.2831 -1.75311e-20)
(0.0201357 1.21639 3.69834e-20)
(1.04053 0.0115051 0)
(1.04652 0.00778383 -6.86219e-20)
(1.03854 0.0214525 -4.9495e-19)
(1.04816 0.0203219 0)
(1.05205 0.0201782 0)
(1.03626 0.0116574 -6.70621e-21)
(1.03096 0.0114984 7.9515e-19)
(1.03173 0.0163945 9.63766e-19)
(1.02569 0.0202851 0)
(1.02277 0.0206824 0)
(1.0351 0.025215 4.93466e-19)
(1.02594 0.0264342 0)
(1.02414 0.026455 0)
(-0.014359 2.01696 0)
(0.00873319 1.64544 -3.48998e-21)
(0.000428155 1.752 -2.34165e-20)
(0.0053008 1.37365 0)
(-0.00102798 1.54424 -7.15694e-21)
(6.32165e-05 1.45114 6.09642e-21)
(0.00123215 1.38416 0)
(0.391876 1.66511 0)
(0.368349 1.30147 -7.71872e-20)
(0.302946 1.34331 0)
(0.422007 1.30281 1.64894e-20)
(0.46764 1.46017 0)
(0.44883 1.40573 1.96368e-20)
(1.03654 2.68422 -1.55022e-20)
(0.967212 2.41045 -9.18526e-19)
(0.919029 2.19471 1.04233e-18)
(0.851321 2.37747 2.43102e-19)
(0.848251 2.49521 0)
(0.918188 2.49106 0)
(0.929454 2.37459 0)
(0.908257 2.3626 -9.46753e-19)
(0.689435 2.46182 -3.97464e-19)
(0.801665 2.45162 -9.82075e-20)
(0.812443 2.42541 7.47486e-20)
(0.695869 2.39462 0)
(0.800612 2.39018 0)
(0.759109 2.40296 -3.6964e-19)
(0.769255 2.48547 0)
(0.625192 1.09867 0)
(0.486004 0.919044 -5.08709e-19)
(0.561369 0.955271 -3.23232e-20)
(0.524719 1.05192 0)
(0.525306 0.998775 7.63466e-19)
(0.790836 0.87942 -1.34316e-19)
(0.799727 1.01669 0)
(0.774049 0.979446 1.94039e-19)
(0.659142 1.03533 0)
(0.662681 0.939648 0)
(1.16564 2.75832 -2.33592e-19)
(1.14334 2.82155 -9.9033e-20)
(0.932519 2.33957 1.03338e-19)
(0.90019 2.31893 -8.42756e-20)
(1.13088 2.73187 0)
(1.08434 2.70179 1.01437e-19)
(1.09102 2.48571 -3.19074e-19)
(0.985731 2.23661 -3.07434e-20)
(0.498849 1.34934 0)
(0.513484 1.07546 -1.24694e-19)
(0.572968 1.17122 0)
(0.857836 0.235986 0)
(0.779388 0.189905 0)
(0.715041 0.150666 0)
(0.850678 0.236988 -6.51248e-19)
(0.753209 0.226416 3.79469e-19)
(0.927775 0.0769096 -4.15873e-19)
(0.942635 0.12369 0)
(0.923039 0.136798 1.78435e-19)
(0.860102 0.11155 7.16204e-19)
(0.826973 0.0689877 -4.48234e-19)
(1.16035 3.35598 -7.19743e-19)
(1.20875 3.2753 0)
(1.15816 3.38444 -1.4857e-18)
(0.645767 3.5454 1.26176e-18)
(0.869759 3.11329 6.95903e-20)
(0.521094 0.832464 6.08859e-19)
(0.432189 0.82989 0)
(0.326285 0.451863 -1.52833e-19)
(0.457527 0.667087 8.6984e-19)
(0.542636 0.4183 -2.06403e-19)
(0.511386 0.486794 2.3862e-19)
(0.665519 0.516625 5.13349e-19)
(0.698611 0.546511 0)
(0.651532 0.59331 0)
(0.608876 0.536324 0)
(0.997909 0.605619 9.70024e-20)
(0.911413 0.542273 -5.35253e-19)
(0.937749 0.575383 4.0573e-19)
(0.96937 0.513707 -4.13713e-19)
(1.07784 0.486727 0)
(1.08549 0.57636 -1.02512e-19)
(0.850558 0.396013 -8.59396e-19)
(0.853293 0.384848 -1.06156e-18)
(0.794222 0.38432 6.70296e-19)
(0.795579 0.356648 -6.84921e-19)
(0.84444 0.318275 -5.36046e-19)
(0.793747 0.31664 6.57748e-19)
(1.02667 0.0057853 -5.00688e-19)
(1.02639 0.00600874 1.01918e-18)
(1.0293 -1.54662e-05 6.35142e-19)
(1.03349 0.00089485 -7.64951e-19)
(1.03358 0.00879428 0)
(1.03004 0.00947108 -1.24501e-18)
(0.0613325 1.64383 2.45131e-20)
(0.0442476 1.57852 0)
(0.0842323 1.69412 1.47722e-19)
(0.0945826 1.67573 -1.30481e-19)
(0.0875889 1.53216 3.85526e-20)
(0.0851999 1.51914 0)
(0.0125791 1.67573 0)
(-0.000906994 1.48175 5.46173e-22)
(0.00300084 1.42715 -4.91011e-22)
(-0.00100388 1.53977 6.55668e-21)
(0.00432531 1.87578 -3.42435e-22)
(-0.00591511 1.92999 3.90527e-21)
(0.498818 1.37061 -2.78195e-19)
(0.492139 1.37346 3.05359e-19)
(0.448639 1.29867 -3.50901e-20)
(0.437155 1.2935 8.04996e-21)
(0.63065 1.30338 0)
(0.54651 1.39098 9.75143e-20)
(0.561759 1.39838 -9.49546e-20)
(0.460138 1.28455 3.41069e-20)
(0.516121 1.23997 0)
(0.568518 1.20681 0)
(0.656274 2.42111 5.83994e-19)
(0.671014 2.46081 1.2732e-18)
(0.715997 2.47155 -8.76967e-19)
(0.612886 2.44614 -2.036e-19)
(0.561073 2.53775 2.85793e-19)
(0.509803 2.51121 -7.62232e-19)
(0.978008 2.38044 -5.83233e-19)
(1.0138 2.39334 0)
(0.925348 2.17277 -6.74058e-19)
(1.05471 2.68118 0)
(1.05698 2.66797 0)
(0.608342 2.26759 -1.20922e-19)
(1.04154 3.15946 1.33016e-19)
(0.912411 3.02959 -3.64783e-20)
(0.276061 0.888147 0)
(0.310342 0.742034 -3.20743e-19)
(0.475136 0.699619 -3.23316e-19)
(0.385281 2.01353 0)
(0.465279 2.78277 -4.84432e-20)
(0.420344 2.54616 0)
(0.701674 0.669324 -8.57139e-19)
(0.784059 0.676872 1.16063e-18)
(0.804582 0.620044 -1.14794e-18)
(0.680328 0.632079 -1.10561e-19)
(0.735207 0.588305 -4.56174e-19)
(1.00431 2.76123 -1.01152e-19)
(1.04293 2.81907 -1.66003e-19)
(0.63768 2.13828 6.78884e-19)
(0.593859 1.70764 -4.8391e-19)
(0.69904 1.90157 -4.07877e-19)
(0.990187 2.44474 -1.13941e-19)
(0.995903 2.43715 2.989e-19)
(0.657952 1.83738 2.82753e-20)
(0.450122 1.32863 1.46095e-19)
)
;

boundaryField
{
    wall-4
    {
        type            noSlip;
    }
    velocity-inlet-5
    {
        type            fixedValue;
        value           uniform (1 0 0);
    }
    velocity-inlet-6
    {
        type            fixedValue;
        value           uniform (0 3 0);
    }
    pressure-outlet-7
    {
        type            zeroGradient;
    }
    wall-8
    {
        type            noSlip;
    }
    frontAndBackPlanes
    {
        type            empty;
    }
}


// ************************************************************************* //
