/*--------------------------------*- C++ -*----------------------------------*\
| =========                 |                                                 |
| \\      /  F ield         | OpenFOAM: The Open Source CFD Toolbox           |
|  \\    /   O peration     | Version:  4.0                                   |
|   \\  /    A nd           | Web:      www.OpenFOAM.org                      |
|    \\/     M anipulation  |                                                 |
\*---------------------------------------------------------------------------*/
FoamFile
{
    version     2.0;
    format      ascii;
    class       volScalarField;
    location    "13";
    object      p;
}
// * * * * * * * * * * * * * * * * * * * * * * * * * * * * * * * * * * * * * //

dimensions      [0 2 -2 0 0 0 0];

internalField   nonuniform List<scalar> 
918
(
0.225885
0.913528
0.00760388
0.225036
0.000154331
0.88128
-0.839824
0.412866
0.205701
-0.143732
0.0170384
0.196463
0.741774
0.507097
-1.44956
0.0145179
0.362503
-0.696863
0.204419
0.00580238
0.487744
0.212066
0.215149
0.205723
0.263351
0.502356
0.621583
0.00340393
-0.00293089
-0.00133988
0.00384769
-0.00357276
0.0029664
0.764646
0.815258
0.837776
0.174317
0.0214074
-0.666306
-0.763171
-0.736371
-0.882809
0.397837
0.404851
-0.50045
0.410598
0.426477
0.193423
0.205094
0.206101
0.20691
0.206142
0.207459
0.288011
-0.172143
-0.229149
-0.0871315
-0.0620466
0.0790639
0.0203631
0.015082
0.0196233
0.0220866
0.1347
0.193669
0.190082
0.200583
0.210699
0.852323
0.823309
0.848959
0.765888
0.780772
0.719513
0.691288
0.528278
0.549269
0.492469
0.481216
-1.87882
-2.84918
-0.8576
-0.600769
0.0015892
0.0217349
0.027505
0.342508
0.353641
0.355721
0.369207
0.788965
-0.662519
-0.801872
0.203935
0.203032
0.211977
0.212312
0.209439
0.207612
0.0140969
0.0214642
-0.00460188
0.00513973
0.00317936
0.466498
0.46077
0.207453
0.204043
0.217265
0.240534
0.228175
-0.020735
0.275241
0.303447
0.300973
0.479911
0.480008
0.486401
0.596024
0.558141
0.65931
0.682916
0.00712279
0.00182613
0.0116827
0.00767165
0.0116616
0.172117
0.16717
0.186203
0.175896
0.179479
-0.0534026
-0.179659
0.101865
0.129281
-0.580837
-0.667429
-0.754136
-0.775651
-0.862496
0.198772
0.385666
0.388997
-0.505466
-0.43161
-0.583883
-0.341348
-0.423172
0.18301
0.190645
0.185052
0.200463
0.195698
0.196553
0.209234
0.206476
0.207878
0.312451
0.379057
0.251681
0.226971
-0.480215
-0.294683
-0.463331
-0.0351654
-0.0238497
0.0900988
0.104406
0.0691197
0.0676043
-0.0066874
0.011118
-0.000544294
0.0242537
0.0258439
0.129407
0.121483
0.14336
0.150846
0.185285
0.185651
0.188321
0.18864
0.64152
0.664015
0.672321
0.645761
-3.87672
-6.94799
-0.267342
-0.124303
0.00280712
0.00303463
0.0012861
0.00481315
0.00353515
0.00120777
0.0419265
0.0389323
0.030728
0.0352057
0.330562
0.336853
0.756428
0.856441
0.666427
0.712691
0.191645
0.19495
0.19974
0.194521
0.0253467
0.0225888
0.0258866
0.426499
0.444663
0.445615
-0.0546169
-0.143613
0.0279898
0.0540536
0.317957
0.302691
0.324471
0.365716
0.40097
0.689432
0.707302
0.707863
0.716032
0.76108
0.774031
0.739539
0.156204
0.165023
0.161064
0.19086
0.187332
0.188306
0.184019
0.186163
0.184246
-0.348949
-0.707434
0.239342
0.224012
0.170255
0.192809
0.249511
0.320754
0.365509
0.374256
0.383321
-0.273428
-0.348402
0.190575
0.174437
0.0797678
0.109505
0.093465
0.61251
0.573887
0.623852
0.597138
0.557657
0.584024
-0.746169
-2.00764
-1.25208
0.241051
0.0454083
0.136952
0.0578549
0.0461252
0.0487408
0.749952
0.797253
0.421352
0.566924
0.53511
0.443876
0.476896
0.53108
0.452234
0.488622
0.526318
0.50933
0.193441
0.262606
0.184346
0.405123
0.50271
-0.159664
-0.203316
-0.277093
0.114718
0.145148
0.12874
0.651166
0.567705
0.632291
0.203557
0.204033
0.0113637
0.0196206
0.208077
0.208516
0.00792031
0.00851087
0.116813
-1.15292
-0.180245
0.195453
0.186138
0.203639
-0.147664
0.306851
0.0185494
0.0871349
0.0588056
0.193789
0.145936
0.111508
0.00766018
0.0202735
0.0146274
-0.465017
0.201073
0.198787
0.203195
0.204373
0.205089
0.00970372
0.0103653
0.0075996
0.0119699
0.0106865
0.00935541
0.172228
0.183642
-0.50487
0.203353
0.205315
0.205319
0.198043
0.20398
0.201611
0.0164253
0.0106914
0.010537
-0.0629081
0.0488477
0.375384
0.495761
0.325144
0.09666
-0.14903
0.271067
0.340557
0.237347
0.405372
0.368783
0.394905
-0.118777
-0.279981
-0.110061
-0.164454
0.193651
0.192571
0.185451
0.180424
0.199136
0.19736
0.20131
0.198313
0.201057
0.202288
-0.084919
-0.0741892
-0.190869
-0.25541
0.335899
0.42179
0.212205
0.251187
0.142088
0.0221521
0.0222271
0.0186076
0.0154858
0.0541016
0.0628022
0.078137
0.0687797
0.0479935
0.0468897
0.0533596
0.0579498
0.06395
0.188675
0.188852
0.193354
0.200073
0.153416
0.156923
0.128039
0.14482
0.134503
0.0769
0.108895
0.0897979
0.00886455
0.00982979
0.00811378
0.024093
0.0281854
0.0151975
0.0131431
0.0134243
0.0113655
0.0117058
0.0187639
0.0217494
-0.478215
-0.568407
0.744787
0.650791
-0.400102
0.189171
0.195806
0.192783
0.198536
0.201355
0.201954
0.199829
0.196982
0.184841
0.18538
0.18271
0.183526
-0.439341
-0.592888
-0.413275
-0.464071
-0.180215
0.307729
0.0609297
-0.00839943
-0.00640868
0.206207
0.601055
0.388559
0.43474
0.466558
-0.682144
-0.285691
-0.611641
-0.0209002
-0.198372
0.375278
0.429572
0.453733
0.397204
0.345337
-0.556173
0.18156
-0.370504
-0.339204
-0.148375
-0.235504
0.420341
0.352922
0.358257
0.381906
0.407537
0.355052
0.335136
0.332435
0.375265
0.380292
0.171552
-0.0257972
-0.0844951
-0.111901
0.33474
0.213736
0.265825
0.188479
0.188248
0.190808
0.189224
0.175074
0.181968
0.174928
0.182135
0.184134
0.194943
0.19487
0.190686
0.19287
-0.0406101
-0.0287009
-0.15647
-0.39048
-0.257132
-0.374064
-0.227075
0.0185836
0.0470339
-0.114051
0.174535
-0.111491
-0.464606
-0.323322
-0.555349
-0.183074
-0.309987
0.0961193
0.150466
0.161689
0.138397
0.204669
0.190673
0.0388146
0.0478632
0.0298232
0.0289459
0.0921868
0.113336
0.112247
0.0475625
0.0495608
0.0253203
0.0260698
0.0658882
0.0406495
0.0524477
0.0648201
0.0212699
0.0242075
0.0289542
0.0386365
0.0384425
0.0409502
0.183693
0.186036
0.184719
0.195902
0.207574
0.22115
0.190309
0.169628
0.162384
0.165921
0.14445
0.151097
0.149561
0.157987
0.175476
0.181415
0.180326
0.181842
0.168796
0.17032
0.158219
0.161802
0.144455
0.12618
0.114843
0.0185824
0.0121137
0.0155076
0.0156824
0.0110713
0.0127075
0.0421071
0.0335971
0.0375599
0.0328624
0.0372456
0.0174508
0.0182046
-0.620144
-0.662257
-0.542439
-0.597905
-0.628561
0.668183
0.701766
0.618399
0.332788
0.325389
0.591147
0.736449
0.397712
0.462228
0.506832
0.153167
0.393984
0.196121
0.195145
0.191909
0.192372
0.194331
-0.323456
-0.226733
-0.230967
-0.177136
-0.0390459
0.0717959
0.134291
-0.178506
-0.0323469
-0.00350201
0.301445
0.318754
0.263642
0.289138
0.288166
0.1192
0.190437
0.235582
0.204308
0.241811
0.257421
0.221139
0.249095
0.206625
0.165235
0.167585
0.117609
0.123222
0.106788
0.0946493
0.185249
0.165356
0.174621
0.167181
0.18596
0.215572
0.206812
0.230415
0.246594
0.174456
0.137895
0.143358
0.174763
0.135922
0.147401
0.160802
-0.114346
-0.197135
-0.16051
-0.448489
-0.334076
-0.404046
-0.438523
-0.350487
-0.0668034
-0.804173
-0.836863
-1.3985
0.122319
0.659169
0.38808
0.3158
0.40403
0.374279
0.370246
0.421125
0.422308
0.326068
0.344552
0.348389
0.295564
0.320062
0.353867
0.349605
0.171274
0.0500275
0.0369774
0.0127886
-0.111872
-0.079646
0.134474
0.0498193
-0.0237306
-0.00112841
0.15572
0.058026
0.112108
0.147399
0.0672727
0.0413876
0.222392
0.293728
0.287142
0.252744
0.180143
0.18894
0.218499
0.249212
0.275759
0.316408
0.183783
0.187694
0.189642
0.188228
0.183342
0.186227
0.185383
0.187862
0.188969
0.192474
0.190946
0.0133595
0.0181491
-0.0047015
0.00198148
-0.00622095
-0.0398089
-0.00108481
-0.0675553
0.0285956
0.0215506
-0.00269506
-0.00619738
-0.000432349
0.0129036
0.119961
0.137009
0.121113
0.0615959
0.025413
0.308479
0.245534
0.193984
0.0945563
0.173865
0.274179
0.0731768
0.081985
0.0711292
0.0914151
0.0875502
0.0318804
0.0279349
0.0314597
0.0416061
0.0388628
0.0289325
0.0228701
0.0249701
0.0273736
0.0261064
0.0261014
0.169359
0.165302
0.167734
0.161845
0.159916
0.172663
0.175435
0.176721
0.181074
0.182818
0.175303
0.178896
0.182069
0.0283416
0.0216238
0.023923
0.0236848
0.0233896
0.0207543
0.0209646
-0.443698
-0.680534
-0.792756
-0.525551
-0.549175
-0.560023
0.19799
0.0640179
0.224207
0.281543
0.19343
0.114798
0.170459
0.230383
0.0433681
0.0604304
-0.0748916
0.591528
0.394992
0.565216
0.0926307
-0.12111
0.0170262
0.0904929
-0.122457
-0.0631272
-0.0203357
-0.114191
-0.0901852
-0.0715257
0.0265372
-0.0474706
-0.0597968
-0.241878
-0.0187034
-0.0142835
-0.0384463
0.0957546
0.161033
0.0264926
-0.145076
-0.174355
0.291568
0.311452
0.327386
0.301898
0.32176
0.249566
0.239316
0.258656
0.269176
0.262183
-1.13309
-0.861517
-1.75367
-1.04467
-0.635766
0.153609
0.112945
0.391337
0.293386
0.370912
0.354065
0.330794
0.293309
0.294801
0.331739
0.0553319
0.152669
0.131387
0.134563
0.0346924
-0.0184121
0.261802
0.256303
0.294377
0.316935
0.285544
0.321065
0.179879
0.179299
0.180237
0.17698
0.173542
0.175038
0.0864713
0.0701349
0.069973
0.0508653
0.051143
0.065352
0.0323485
0.0287769
0.026049
0.0266259
0.0302994
0.0345174
-0.163643
-0.323494
-0.444016
-0.442732
-0.346682
-0.456476
-0.442921
-0.415
-0.266163
-0.271826
0.00138866
0.264666
0.0107741
0.242186
-0.0366745
0.149467
0.242901
0.192896
0.236228
0.0935595
0.19199
-0.136744
-0.617452
-0.509086
0.384961
0.448166
0.216485
0.0570177
-0.211687
-0.04702
0.208275
0.142105
0.188023
0.256802
0.253577
-0.353572
-0.313612
-0.0573206
0.160885
-0.172949
-0.202282
-0.198973
-0.0313748
-0.0942232
)
;

boundaryField
{
    wall-4
    {
        type            zeroGradient;
    }
    velocity-inlet-5
    {
        type            zeroGradient;
    }
    velocity-inlet-6
    {
        type            zeroGradient;
    }
    pressure-outlet-7
    {
        type            fixedValue;
        value           uniform 0;
    }
    wall-8
    {
        type            zeroGradient;
    }
    frontAndBackPlanes
    {
        type            empty;
    }
}


// ************************************************************************* //
