/*--------------------------------*- C++ -*----------------------------------*\
| =========                 |                                                 |
| \\      /  F ield         | OpenFOAM: The Open Source CFD Toolbox           |
|  \\    /   O peration     | Version:  4.0                                   |
|   \\  /    A nd           | Web:      www.OpenFOAM.org                      |
|    \\/     M anipulation  |                                                 |
\*---------------------------------------------------------------------------*/
FoamFile
{
    version     2.0;
    format      ascii;
    class       surfaceScalarField;
    location    "13";
    object      phi;
}
// * * * * * * * * * * * * * * * * * * * * * * * * * * * * * * * * * * * * * //

dimensions      [0 3 -1 0 0 0 0];

internalField   nonuniform List<scalar> 
1300
(
3.75095
5.62643
-6.21098
3.75095
-6.06214
5.62643
-4.50713
4.50713
-1.4617
1.4617
1.87676
1.87419
-4.53246
4.53246
-4.80248
4.80248
-2.82455
2.82455
-5.24642
5.24642
-5.06809
5.06809
4.6788
-4.6788
-4.92304
4.92304
-1.88851
1.88851
-3.9969
3.9969
3.17243
-3.17243
-5.09206
5.09206
-0.533253
0.533253
-0.553647
4.3046
3.19731
3.19731
-2.54706
2.54706
-4.85135
4.85135
6.21782
-6.21782
9.43182
-9.43182
-3.22084
-3.39157
1.35108
-8.11333
-4.71106
-4.71106
-8.44024
8.44024
-2.81381
2.81262
2.92689
-2.92689
-1.74786
1.74786
-4.49205
-0.0150797
-4.49205
4.50471
0.00241665
4.50471
-1.5961
0.134398
-1.5961
4.12974
-4.12974
1.29164
0.17006
1.29164
3.06303
-3.06303
-1.87704
3.7538
1.87392
-1.87251
6.17711
-1.87844
3.75264
-4.97494
4.97494
-4.34988
-0.182585
-4.34988
4.64241
-0.109949
4.64241
-5.21582
5.21582
-4.77265
-0.0298264
-4.77265
4.8587
-0.0562217
4.8587
3.0419
-3.0419
-2.85636
0.0318098
-2.85636
2.77708
0.0474624
2.77708
0.353728
5.2727
-5.98016
8.79278
-5.2727
0.0262821
5.20837
0.0380541
5.20837
-5.10606
0.0379709
-5.10606
5.01074
0.0573491
5.01074
4.76077
-0.0819715
4.76077
-4.79892
0.120117
-4.79892
-3.32388
-3.36326
-5.01611
0.093077
-5.01611
-1.9283
0.0397922
-1.9283
1.8443
0.0442098
1.8443
-3.48678
3.48678
-4.09927
0.102373
-4.09927
3.12474
0.0476909
3.12474
1.86904
1.88191
5.61999
-5.61999
2.44756
-5.05608
-0.0359751
-5.05608
-5.13361
-4.29821
5.13361
-0.0415524
-0.832075
0.298822
-0.832075
3.15897
0.0383327
3.15897
2.70329
0.0737921
-2.70329
0.156232
3.42366
-3.42366
1.91167
0.635386
1.91167
-5.57273
5.57273
4.94862
0.0621187
-4.94862
0.0972726
6.15733
0.0604892
6.15733
-6.19993
-0.017887
-6.19993
3.38547
-6.77704
-3.39496
4.81769
0.105348
-4.81769
0.106627
2.94441
-0.0175222
2.94441
-2.88818
2.88818
-2.95084
0.0239523
-2.95084
-2.17492
0.427064
-2.17492
1.43104
0.316818
1.43104
-4.41416
-0.0778928
-4.41416
-4.34471
0.245435
4.34471
0.160008
0.829182
-0.829182
-1.71687
0.120766
-1.71687
-4.26458
-0.149584
4.26458
-0.13484
-4.00167
-0.128068
-4.00167
-3.00382
0.0529789
3.00382
0.0592084
3.1151
0.0438715
-3.1151
0.0520711
-1.87116
3.75307
-1.87979
3.75371
-4.76896
-0.205973
-4.76896
5.12211
-0.147172
5.12211
4.1454
-0.148501
-4.1454
-0.20448
4.70365
-0.0612406
4.70365
-5.21922
0.00340374
-5.21922
5.23464
-0.0188278
5.23464
4.74918
-0.0455234
-4.74918
-0.0234762
4.93437
-0.0756719
4.93437
3.08754
-0.0456405
3.08754
-3.00988
-0.032015
-3.00988
2.88111
-2.88111
2.87611
0.00500525
-2.87611
0.0197526
-11.1322
11.1143
-0.0347315
-11.0974
5.17363
5.17363
4.16704
0.593734
4.16704
-5.0104
0.211475
-5.0104
3.33435
-6.72931
3.37386
-6.69774
3.35386
-11.4672
3.33592
-6.69917
5.16559
-5.16559
5.09509
0.0704979
-5.09509
0.0789804
-1.97372
0.0454258
-1.97372
-2.99125
-0.495537
-2.99125
3.90061
-0.413828
3.90061
-3.00425
3.00425
-3.07092
0.0666777
3.07092
0.0538184
5.00361
-0.0692355
-5.00361
-0.0524748
1.07154
0.220107
-1.07154
0.239462
3.60823
-0.184573
3.60823
-3.25318
-0.170483
-3.25318
-1.93522
-0.0385022
1.93522
-0.0235504
-5.81846
0.245729
-5.81846
-11.1909
0.0935145
-11.1529
-6.10642
-6.10642
2.33382
11.1266
-2.97515
-0.0347356
2.97515
-0.030735
2.93558
0.0686613
-2.93558
0.0474011
-2.87612
-0.00499542
2.87612
0.0120651
-2.59978
0.424855
-2.59978
-1.05831
1.05831
-1.21318
0.154871
1.21318
0.217861
1.03779
-0.208605
1.03779
1.77781
0.0664853
-1.77781
0.0609431
-3.89397
-0.107697
-3.89397
5.21227
-0.0901565
5.21227
-3.15272
-0.100459
3.15272
-0.0651778
-0.0332447
11.1475
-5.14039
0.0343309
5.14039
-11.208
11.2423
-3.2539
0.654119
3.2539
0.913144
5.29771
0.275022
-5.29771
0.287316
5.21729
0.0173509
-5.21729
0.0517017
-2.45497
-0.536279
-2.45497
-4.39093
-0.378033
4.39093
-0.490319
-11.4729
-0.20359
11.6765
-11.4156
6.02205
0.135278
-6.02205
11.3776
-0.861522
0.0323397
0.861522
0.196787
1.42586
-0.388076
1.42586
3.78514
-0.176904
-3.78514
-0.108834
-5.23177
0.0125507
5.23177
-0.0195048
-1.88807
-0.566893
1.88807
-0.462211
-4.26636
4.3047
1.91075
-3.36693
-3.41012
-7.66513
1.85038
1.90269
4.29794
-7.07691
-4.39028
-6.97028
7.27437
-6.98705
-9.31703
9.23506
7.41417
-7.54224
-5.78407
5.83789
6.47197
-6.41276
1.87974
1.87406
9.03802
-9.2206
-11.7943
11.5884
10.1097
-10.1395
10.9922
-10.9888
-12.5523
12.5697
-5.74674
5.77855
-6.60129
6.56928
-6.79118
6.726
-3.29027
-3.40747
9.13787
-9.04479
11.7499
-11.7859
-7.15284
7.25522
3.38349
0.921212
3.42736
-1.88193
3.76167
-1.8707
3.78145
3.38835
-6.67862
3.34097
-6.75108
6.07453
5.67535
-6.03298
-1.63215
-5.86817
5.85065
-5.8555
5.86757
8.86789
-8.88297
-1.88496
3.75902
-1.86875
3.77144
-3.42352
-2.36055
3.37583
0.922118
5.60208
3.5358
-5.70742
-1.26286
-7.65015
7.47325
-7.92469
7.75421
-0.454391
5.824
-5.36961
4.39696
-1.54704
7.37104
5.72733
5.9388
5.86811
-5.59308
1.11895
-6.48855
-6.39128
-2.70005
2.82081
2.65065
-2.48059
5.84335
1.57082
5.70851
-5.44445
-2.09779
-5.55214
3.81787
2.02001
3.88455
4.02658
2.44539
4.07956
3.03306
-3.0352
0.00214129
-3.05683
6.08989
0.723821
-5.41738
-4.49526
6.33058
2.70744
6.22063
-5.48261
-3.73799
-5.68709
-7.16516
-4.62917
-7.54319
7.30649
4.28187
7.15932
-8.33726
8.31775
6.73178
3.37789
6.67556
-6.62066
-3.51883
-6.64414
10.5967
-2.59017
-8.00651
-7.04869
-5.50365
7.06751
3.92473
7.61548
4.95421
7.66718
3.57937
7.01731
-7.5041
2.00045
-3.84092
-1.90582
-3.82117
3.73842
2.04013
3.78588
-4.12623
-2.47506
-4.16097
-4.19347
-2.59771
4.23911
2.33017
-4.30757
-3.61713
4.40803
2.31797
3.07822
-7.46851
3.62095
-7.02842
-6.36866
-2.67614
-6.28968
4.13254
2.61194
-6.74448
-2.54608
10.9293
-5.25397
9.29716
-7.29476
-4.49109
-7.34724
-5.99637
-1.15647
-5.75094
-8.54362
8.00734
-7.70673
7.29291
14.7819
-6.32367
-8.45822
-3.97071
-2.44205
3.91864
-0.49128
-3.71143
3.71357
0.0502395
3.83169
4.7529
4.26162
-3.88009
-1.97542
-3.83268
3.86898
1.99859
3.86398
6.58547
2.28242
6.58788
-6.46109
-2.42188
-6.53898
9.00026
-8.57319
2.91484
-2.95334
5.18261
2.5716
-4.99803
-2.65212
5.99626
-3.03754
-2.95872
-12.2322
10.6098
1.62236
-4.86117
-0.464212
0.0690408
-5.51345
-3.80359
5.39333
0.545475
11.1553
7.35173
-5.51433
5.76006
6.16219
6.2243
-0.166976
5.79455
-5.14043
5.14774
-2.18105
-2.96668
5.26037
-5.40995
-1.27861
-5.27508
3.99647
0.298563
1.85364
-1.55482
-2.11182
-0.588229
-2.05087
1.59087
1.05978
1.81097
1.00486
1.81596
-2.93769
0.530232
2.40746
-1.93284
-1.95035
-3.59091
-0.914306
4.50522
5.48714
1.98611
-5.37831
-0.173837
2.76876
-2.72455
-0.876282
-2.71463
1.93836
-2.81465
-3.44334
-1.77961
5.22295
-3.37956
-0.453127
3.3109
0.573655
-3.75178
-2.1164
3.72782
0.351733
-3.12619
6.23877
-3.11258
-5.10161
2.52832
3.56156
4.54833
-4.80784
2.44626
2.36158
-1.24627
5.6003
0.620326
5.53906
-7.74427
4.00628
5.3821
1.87312
-5.2336
-0.453495
-8.19777
10.9855
-8.07537
-2.91016
6.81534
4.17019
6.38793
8.39396
-6.50634
12.8943
1.22295
-9.29832
6.97482
-5.1017
3.67778
-8.77949
-12.0717
2.77343
-7.67549
8.80751
-1.13202
-2.39238
-5.94488
10.0679
-1.12428
-8.94359
6.03504
-5.49699
-5.29947
10.7965
-8.08716
8.8183
-2.82256
-5.99574
-6.96726
-4.02158
6.95471
1.36304
-10.0153
12.0157
-2.99796
5.88314
0.792415
5.80747
4.17183
-6.02936
1.85753
3.91533
-6.73789
3.17099
-9.20035
-4.92637
9.61205
-4.68568
-7.60251
-6.808
-0.794508
2.03339
9.98234
-6.98759
5.36
1.62759
3.34442
0.519562
-3.34943
-0.471739
0.353336
4.43235
-4.78569
4.13922
4.21301
3.36747
1.06488
3.82267
2.02799
-3.79193
-0.369038
-4.03242
1.43471
-1.70225
-3.54244
4.97715
-3.95831
0.415866
-2.64126
-3.49154
6.1328
-4.54707
3.09368
3.14508
5.09228
-4.85145
1.3599
-2.40415
-2.44729
2.5984
-4.30066
1.89255
3.0846
4.21053
0.593402
4.89261
4.71944
-7.50455
0.476126
8.25524
-6.99238
1.72211
5.94507
-7.08211
0.274106
-6.01557
1.09657
-6.35053
-5.64791
4.31782
-5.4743
-4.46166
5.73257
0.855314
-5.89258
0.14164
-5.80976
-2.73386
-6.37666
-2.23823
-5.4685
-8.74457
-2.04331
-6.70127
5.96404
-5.20406
-2.33913
5.69438
1.59852
-7.17668
7.20902
-7.52968
7.14161
0.0905748
3.623
4.35219
1.91014
-2.37672
4.28687
-4.94476
7.22718
-8.59135
3.64659
4.07161
-6.49349
-4.51974
4.91567
4.08459
5.23248
8.97885
-10.5538
1.57499
-10.7373
12.7123
-1.97502
-16.5922
5.85489
-7.61334
2.64934
0.265497
2.69477
0.674871
2.35766
-3.03253
-2.27847
-2.30202
-2.26267
-3.25586
5.51852
1.17952
-3.29672
2.1172
-3.40846
4.58798
-0.0803221
-3.2164
5.12576
-2.7681
5.39126
-3.48879
1.90247
3.22816
5.47906
-2.2509
4.15724
-1.58563
1.75074
-4.00164
-1.50512
-2.96507
5.0052
-3.16773
3.58359
-0.219515
3.80311
-3.99886
0.961322
-0.631394
3.58161
3.73785
4.09842
-3.03353
2.86194
-4.44757
-1.1397
-3.85417
-0.769574
-0.763057
-3.57854
4.3416
5.86851
-6.63157
-5.3695
9.58875
-4.21925
7.72329
-5.44879
-2.2745
-4.24188
-4.33132
3.81702
1.97753
9.70082
0.198642
-5.64743
-4.94179
-4.02864
3.12971
2.01803
-2.04175
3.66411
1.97271
-0.119072
0.639466
1.17151
1.91723
-1.27776
0.14385
1.77338
-1.41097
2.04282
0.725944
-2.1093
0.0584289
-1.4058
3.34416
1.00166
-2.06144
0.783681
1.1212
-3.30225
4.67481
-2.26469
-2.41012
5.796
1.21921
-3.4839
4.05587
-3.7573
2.28445
-3.19875
-1.19945
-4.95676
-3.38594
-2.44602
4.56322
-3.07251
5.05862
1.11988
-4.88478
6.00466
-3.42848
1.64887
-3.07197
3.79792
-1.1595
-1.91248
2.61195
2.611
-2.78145
0.0668261
-0.169507
2.20909
-2.3786
-0.605554
-2.53839
-4.55786
4.90959
-2.1744
4.62066
2.11247
-1.92883
6.54949
1.83401
-3.76284
-3.2676
-3.72072
-1.40127
3.14707
-1.05229
-5.59185
-7.04802
5.63737
-0.0983122
-8.16895
10.0929
-1.92396
-5.46151
1.45523
5.36011
-7.72664
0.988747
-4.55565
5.53726
6.15759
6.05928
-9.42628
0.482691
-5.14442
2.24334
-7.38776
6.41354
-5.24509
8.01852
-9.2477
6.90857
-7.64917
5.10836
-2.2794
5.60637
-3.74883
2.40014
-6.42172
-5.05868
7.00992
-3.63203
7.80234
-4.16647
11.9688
-7.16443
7.00777
4.96103
-1.45815
-5.88908
-6.85693
5.39877
0.150849
5.95832
4.92481
-2.89682
4.55577
2.21995
-4.6241
-2.08071
-6.47837
1.85427
-3.33329
-1.87885
3.73312
3.21343
3.73299
1.28582
-3.26125
6.73664
-7.53114
-2.05095
-3.59696
6.76882
-1.37005
4.07281
-7.66977
-2.27773
6.21157
-0.447328
-5.76424
0.112096
-4.57376
0.733666
-5.30742
4.74063
-4.59899
2.12511
-9.73844
-5.05157
-4.85479
-2.36847
-5.16122
-7.69409
5.32562
-1.8392
5.36982
-8.75781
8.31048
-3.95451
9.28013
-5.3659
-1.01076
5.82811
1.3135
10.5936
0.0774114
-4.59716
-1.83154
3.83783
-2.00629
1.29817
-3.50113
0.336702
2.46267
3.33333
-6.45914
-0.0343464
-4.6315
-3.81391
7.8985
5.77483
11.6433
1.08951
9.14367
-1.24517
10.2332
3.98732
4.20518
-3.1954
4.77039
1.1462
4.79279
-0.854951
2.75742
1.83982
1.87961
0.844944
2.28143
1.45642
3.24275
0.210217
-2.0918
4.67451
-8.70315
-0.972928
-8.10941
1.12565
5.86204
-4.73639
3.01571
-0.997682
1.00941
0.270243
-1.87856
1.60831
-2.69644
-1.99763
-0.224251
-1.50374
2.28742
1.84042
-2.06317
-0.633269
0.28374
-3.66968
2.91501
-2.84819
-0.237189
5.76747
-2.6719
0.293297
-1.02302
-2.24509
-2.83332
2.77489
6.25231
0.297178
3.13973
5.20677
3.09037
0.193554
5.29776
-6.42978
-3.90259
-5.94709
0.466449
5.82656
2.10569
7.87665
7.06672
5.69667
-1.9731
-9.50424
7.97436
-3.20397
5.99934
-0.235099
-5.07232
4.53856
2.68863
-5.39387
0.794881
-4.27744
-7.48141
-0.496657
8.80713
-10.097
9.08621
6.35236
0.348912
-4.1877
-0.667088
4.03283
0.17235
10.4055
-1.20059
-6.89009
8.09068
-4.66145
3.68852
0.832297
2.83182
2.44061
1.44293
-5.44716
-10.1836
-1.73401
-1.56823
-4.14413
0.361082
-2.2015
6.30026
-2.61174
4.02576
5.47894
6.48836
-2.32254
-4.30903
6.54179
-2.51603
3.97232
)
;

boundaryField
{
    wall-4
    {
        type            calculated;
        value           uniform 0;
    }
    velocity-inlet-5
    {
        type            calculated;
        value           uniform -3.75095;
    }
    velocity-inlet-6
    {
        type            calculated;
        value           uniform -5.62643;
    }
    pressure-outlet-7
    {
        type            calculated;
        value           nonuniform List<scalar> 8(6.21098 6.06214 6.61241 6.76225 6.68714 6.78044 6.70821 6.68978);
    }
    wall-8
    {
        type            calculated;
        value           uniform 0;
    }
    frontAndBackPlanes
    {
        type            empty;
        value           nonuniform 0();
    }
}


// ************************************************************************* //
