/*--------------------------------*- C++ -*----------------------------------*\
| =========                 |                                                 |
| \\      /  F ield         | OpenFOAM: The Open Source CFD Toolbox           |
|  \\    /   O peration     | Version:  4.0                                   |
|   \\  /    A nd           | Web:      www.OpenFOAM.org                      |
|    \\/     M anipulation  |                                                 |
\*---------------------------------------------------------------------------*/
FoamFile
{
    version     2.0;
    format      ascii;
    class       volVectorField;
    location    "13";
    object      U;
}
// * * * * * * * * * * * * * * * * * * * * * * * * * * * * * * * * * * * * * //

dimensions      [0 1 -1 0 0 0 0];

internalField   nonuniform List<vector> 
918
(
(0.985165 -0.000591719 0)
(0.00476303 2.96626 0)
(-0.00287553 1.6483 0)
(0.979829 0.0023568 0)
(0.000188359 1.61418 9.49425e-22)
(-0.00704028 2.9489 -8.11388e-19)
(0.846487 1.19182 3.0471e-19)
(0.497961 0.242008 -3.61907e-21)
(0.999931 -0.000406471 0)
(0.00412584 1.33853 0)
(-0.00442659 1.40182 0)
(0.832845 -0.00502257 0)
(0.0115134 2.93014 0)
(0.00188829 2.79509 0)
(-0.0192501 3.1656 4.77157e-19)
(-0.00340699 1.53066 -6.7881e-21)
(0.597962 0.112012 2.23272e-19)
(0.174151 1.27186 2.42285e-19)
(0.963541 0.00416438 0)
(0.00106107 1.5083 0)
(0.175829 0.276981 -1.94129e-19)
(1.00146 -0.0055259 0)
(1.00075 -0.0101651 0)
(0.975931 -0.00648858 0)
(0.747353 -0.0226316 0)
(0.018952 2.62788 0)
(-0.0151228 2.91043 2.6664e-19)
(-0.00949734 1.67396 0)
(-0.00912867 1.7661 0)
(-0.00841386 1.67119 0)
(0.00434346 1.80214 0)
(0.00211996 1.62985 -7.36672e-22)
(-0.00202077 1.53984 0)
(-0.0204432 2.9875 -2.83718e-23)
(-0.0169968 3.0054 6.44568e-19)
(0.00201599 3.00017 0)
(0.870039 -0.00401237 0)
(0.397094 0.9218 -7.67554e-21)
(0.832376 1.21104 -4.16725e-19)
(0.978992 1.06643 3.94535e-19)
(0.696169 1.30515 -7.01704e-20)
(0.684549 1.2857 3.9818e-19)
(0.53023 0.311179 3.52888e-21)
(0.523909 0.219379 0)
(1.19235 0.597765 0)
(0.490663 0.327633 1.64361e-20)
(0.45498 0.240964 -1.70654e-20)
(0.918184 -0.00859584 0)
(1.00037 1.35847e-05 0)
(0.999961 0.00029229 0)
(1.00395 -0.0077535 0)
(1.00067 -0.000745216 0)
(1.00017 0.000141655 0)
(0.0313561 1.5713 -2.22782e-19)
(-0.0190609 1.42178 0)
(-0.00183022 1.27747 0)
(-0.015891 1.48493 0)
(0.00962601 1.35371 0)
(0.00284973 1.57068 0)
(-0.00596571 1.54298 0)
(0.00288775 1.3957 0)
(-0.0123795 1.56554 0)
(-0.00759464 1.4188 0)
(0.907613 -0.00121913 0)
(0.906752 0.00684736 0)
(0.845497 0.000861888 0)
(0.899499 0.0103984 0)
(0.819697 -0.00601526 0)
(0.0153599 3.00064 2.9095e-19)
(0.0117111 3.00827 0)
(0.00649397 3.00264 0)
(0.0141691 2.99718 3.20799e-24)
(0.00838927 2.9585 -4.39597e-19)
(0.015215 2.98194 0)
(0.0111875 2.90366 0)
(0.0257607 2.92992 5.61833e-25)
(0.0045376 2.82542 0)
(0.0327952 2.91516 0)
(-0.0069095 2.74459 0)
(0.307641 3.56301 0)
(-0.146109 3.64084 0)
(0.138046 3.2581 -4.40446e-19)
(-0.00837029 2.99354 0)
(-0.00443429 1.78286 0)
(-0.00328187 1.64836 6.69441e-21)
(-0.00299286 1.54246 -1.06328e-20)
(0.656606 0.168002 -7.66259e-20)
(0.616217 0.0802683 -7.48161e-20)
(0.628289 0.200933 -2.3072e-19)
(0.580282 0.140269 -1.5463e-19)
(0.24352 1.08732 0)
(0.204126 1.299 -2.47975e-19)
(0.334359 1.2784 4.1074e-19)
(0.988086 0.00866476 0)
(0.941469 0.00640773 0)
(1.00034 0.000428837 0)
(1.00319 0.00958095 0)
(1.00255 0.00784431 -4.26362e-19)
(0.991866 0.00992999 3.25421e-19)
(-0.00695177 1.61492 0)
(-0.00371464 1.50234 0)
(-0.0143849 1.68487 0)
(-0.0101328 1.63811 0)
(0.00135071 1.52285 0)
(0.262284 0.285419 6.00414e-20)
(0.296413 0.269123 0)
(0.993024 -0.00851113 0)
(0.954279 -0.00615552 0)
(0.874957 0.0188545 0)
(0.841841 0.0323374 0)
(0.79869 -0.00819893 0)
(1.02276 -0.00304305 0)
(0.78936 0.0398351 0)
(0.673776 -0.00804992 2.99322e-19)
(-0.0344013 2.86738 1.32538e-19)
(0.0442296 2.90759 0)
(0.058871 2.8817 0)
(-0.00603958 2.69535 0)
(-0.0134216 2.9851 2.43932e-19)
(-0.0183638 2.89565 0)
(-0.0158959 2.988 -7.75464e-19)
(-0.013285 2.92549 2.69055e-19)
(-0.00589817 1.81304 0)
(-0.00363439 1.80804 0)
(-0.00123276 1.65053 -1.32891e-22)
(-9.3512e-05 1.62843 0)
(-0.00641641 1.52744 0)
(0.933155 0.00165929 0)
(0.873388 0.00170843 0)
(0.853404 0.00287777 0)
(0.936116 -0.00329267 0)
(0.875957 -0.00495899 0)
(0.504022 1.12274 5.70745e-21)
(0.559869 1.17633 0)
(0.362415 0.856979 2.26058e-21)
(0.302776 0.718924 0)
(0.952602 1.09539 -1.13157e-19)
(1.06558 0.916339 2.35927e-19)
(0.394216 1.3416 0)
(0.572056 1.34639 0)
(0.486715 1.31254 0)
(0.0905769 0.110382 -4.18776e-20)
(0.566239 0.287108 0)
(0.554559 0.196257 4.45018e-20)
(1.04034 0.960024 0)
(1.11682 0.809249 0)
(1.13937 0.757072 -2.09423e-19)
(1.17132 0.649263 0)
(1.2237 0.431375 2.65157e-20)
(0.948247 -0.0071218 0)
(0.959243 -0.0111947 0)
(0.894954 -0.00809253 0)
(0.984271 -0.00932 0)
(0.975403 -0.00874585 0)
(0.93888 -0.0060566 0)
(1.00012 0.00203114 0)
(1.00081 0.00147063 0)
(0.999848 0.000839517 0)
(0.0222971 1.69675 1.198e-19)
(0.0612724 1.54086 0)
(0.0137275 1.72073 1.98962e-19)
(0.0220248 1.59002 -1.69387e-19)
(0.0311697 1.28728 -1.96821e-19)
(-0.040065 1.34591 0)
(0.0420242 1.25619 0)
(-0.00686895 1.51308 0)
(0.00922701 1.37031 0)
(-0.00267068 1.67554 -4.87642e-22)
(-0.00377604 1.58105 0)
(0.00217586 1.67972 -2.38332e-20)
(0.00204339 1.58136 4.56073e-20)
(-0.00588367 1.53284 0)
(-0.00385843 1.54395 0)
(0.00584553 1.38604 0)
(-0.0158743 1.58322 0)
(-0.010648 1.4451 0)
(0.973163 0.0134773 0)
(0.923273 0.0038406 0)
(0.958131 0.00722951 0)
(0.898368 0.000786709 0)
(0.848222 -0.00561174 0)
(0.925298 0.00053795 0)
(0.919019 0.00741966 0)
(0.847223 -0.000650642 0)
(0.00423824 3.06398 -2.40935e-21)
(0.0163844 3.05806 0)
(0.0152897 2.96913 0)
(0.00869611 2.87645 0)
(0.964579 4.00285 0)
(1.30866 3.25984 4.89551e-19)
(0.0702991 3.08408 0)
(-0.0248262 2.91295 0)
(-0.00787553 1.79349 0)
(-0.00899273 1.78517 0)
(-0.00549999 1.78836 0)
(-0.00088077 1.79094 2.2546e-21)
(-0.00658551 1.78426 0)
(-0.000572265 1.78407 0)
(-0.00375132 1.55571 1.2637e-21)
(-0.00485058 1.67071 1.41195e-20)
(-0.00345003 1.66051 1.08524e-20)
(-0.00212321 1.54533 0)
(0.690147 0.134903 1.12674e-19)
(0.652673 0.0501589 -1.09559e-19)
(0.236 1.33546 0)
(0.247712 0.873279 -1.08493e-19)
(0.172546 1.43754 -3.07928e-19)
(0.187033 1.23115 3.07221e-19)
(0.891006 0.00989699 0)
(0.965471 0.0140556 0)
(0.975775 0.012785 0)
(0.91996 0.0106107 0)
(-0.0148068 1.60074 0)
(-0.0113389 1.61075 0)
(-0.00842849 1.47398 0)
(0.440498 0.345722 1.51129e-19)
(0.368256 0.323438 -1.84033e-19)
(0.382295 0.250266 0)
(1.14197 0.0838501 -1.44863e-21)
(1.12285 0.0378358 0)
(1.05715 0.0339305 0)
(0.972819 0.00259691 0)
(0.712089 0.0876735 0)
(0.733577 0.0614682 -4.81915e-19)
(0.65971 0.0179188 1.8444e-19)
(0.00980608 2.98256 1.69039e-19)
(-0.0322971 2.86852 1.93489e-20)
(0.00227888 3.04937 -5.21259e-21)
(0.0206097 3.04348 1.94465e-19)
(-0.0153585 2.9962 8.95362e-21)
(-0.0128528 2.94944 -3.63465e-23)
(-0.0175912 3.01153 -1.68991e-19)
(0.0141504 3.02324 1.21501e-19)
(0.00659273 3.03657 -1.93953e-19)
(0.953121 0.00768983 0)
(0.945914 0.00607242 0)
(0.882763 0.00309129 0)
(0.949802 0.012242 0)
(0.932874 0.00996533 0)
(0.866984 0.00796261 0)
(0.925417 -0.00222341 0)
(0.920281 0.00235672 0)
(0.847854 -0.00430373 0)
(0.731565 1.41445 1.43956e-19)
(0.783746 1.51361 0)
(0.216388 0.446768 1.43077e-20)
(0.206198 0.561264 1.05708e-19)
(0.284261 0.677366 -5.28274e-20)
(0.231991 0.575865 9.7061e-20)
(0.295631 0.613647 2.33206e-19)
(0.101539 0.118124 7.4504e-20)
(0.608349 0.229153 1.67202e-19)
(0.587188 0.253254 4.08414e-20)
(0.561217 0.167085 8.57382e-20)
(1.2129 0.484932 1.20625e-19)
(1.22631 0.280724 1.271e-19)
(0.00496612 1.72957 7.78176e-20)
(0.00939956 1.60358 0)
(1.01272 0.0226855 0)
(0.986111 0.0135653 0)
(0.944786 -0.00211409 0)
(0.0109242 3.07485 0)
(0.0209146 2.94406 3.2987e-19)
(0.0172309 2.95654 0)
(0.00628226 2.85096 -3.28787e-19)
(0.00550386 3.09137 7.59795e-20)
(0.0061526 3.08162 0)
(0.873321 1.82495 -1.01015e-19)
(1.2704 2.3895 2.23257e-19)
(0.856015 1.93395 -5.8268e-19)
(0.0212419 2.98606 -1.23221e-19)
(0.0370409 3.0094 0)
(-0.0310336 2.88414 0)
(-0.0036249 1.66999 -3.19423e-21)
(-0.00550386 1.67667 -3.21109e-20)
(-0.00350779 1.57302 -2.03754e-21)
(0.330649 1.22807 3.10397e-19)
(0.234255 0.639168 -2.10185e-19)
(0.0476947 1.64041 2.00027e-19)
(0.0903563 1.53396 -2.46756e-19)
(0.109955 1.42062 3.18263e-20)
(0.00189401 3.11866 -4.43106e-19)
(0.0132304 3.11853 5.00222e-19)
(-0.0090852 2.98131 2.10019e-19)
(-0.00396727 2.97846 -1.84632e-19)
(-0.0214475 2.88273 -2.14013e-19)
(0.00779588 3.09966 -5.57794e-19)
(0.00139012 3.10472 5.60686e-19)
(0.18158 0.552834 0)
(0.0983101 0.536023 -2.22316e-19)
(0.173703 0.233672 9.29551e-20)
(0.355713 0.764933 2.43538e-19)
(0.150234 0.20832 -3.69176e-19)
(1.2222 0.178124 -2.17494e-20)
(1.22411 0.326075 0)
(1.20921 0.129372 5.01299e-20)
(-0.00992859 1.70161 -6.31603e-22)
(-0.00761546 1.71479 0)
(-0.000351733 1.59407 0)
(0.381946 1.08877 -9.81998e-20)
(0.367956 0.955505 -2.01625e-19)
(0.156577 0.387162 3.50343e-19)
(1.00519 -0.0112017 0)
(1.00752 -0.0080042 7.8197e-20)
(-0.00587812 1.80336 0)
(-0.0120329 1.80998 0)
(1.00222 0.00362034 8.51592e-22)
(1.00307 0.0098763 1.59672e-19)
(-0.00108556 1.79476 -3.00564e-21)
(-0.00208265 1.79496 0)
(0.0388004 3.18432 4.62779e-20)
(0.394257 3.49761 0)
(1.11486 0.627314 2.607e-20)
(1.0137 0.0154479 -9.39536e-22)
(1.01806 -0.0227989 0)
(1.00165 0.00038043 3.38998e-23)
(-0.103001 1.58978 0)
(0.0282366 1.95906 0)
(-0.0128382 1.77708 0)
(-0.0197298 1.83232 3.37186e-20)
(-0.00082625 1.81658 1.71045e-20)
(1.00339 0.0117703 9.90216e-22)
(1.04307 0.0114351 0)
(1.07048 0.0264958 0)
(-0.0106026 1.78579 0)
(-0.00650938 1.80529 0)
(-0.0154182 1.79546 0)
(0.157524 1.21426 -1.66597e-19)
(1.01118 -0.0102627 0)
(1.00939 -0.0135444 0)
(1.00233 0.000407552 9.88339e-20)
(1.006 -0.00530834 -1.18093e-19)
(1.00098 -0.00087364 0)
(-0.0123767 1.78613 0)
(-0.00774048 1.79745 0)
(-0.00785879 1.79239 0)
(-0.0124234 1.79831 0)
(-0.00892597 1.79484 0)
(-0.0115242 1.79795 0)
(1.02389 0.0105519 0)
(1.02376 0.00414048 -4.51125e-22)
(0.808327 1.23205 2.07741e-19)
(1.00241 0.000502735 -9.90398e-20)
(1.0038 0.00572949 1.19189e-19)
(1.00125 0.00197444 0)
(1.01222 0.00961461 9.57218e-20)
(1.00827 0.00884906 -1.1933e-19)
(1.00788 0.0161798 0)
(-0.00636318 1.80528 0)
(-0.00582024 1.80121 5.45199e-21)
(-0.00603076 1.80113 -3.76447e-21)
(1.18245 0.252988 -2.55774e-20)
(1.11807 0.0749533 0)
(0.0574698 3.07688 -2.17916e-19)
(0.0702611 2.84764 -1.73919e-20)
(0.149937 3.20035 3.38398e-19)
(0.144029 3.23019 6.48915e-22)
(0.137291 3.24342 0)
(0.0217306 3.13865 4.80718e-20)
(0.0817155 3.16335 2.10219e-19)
(0.0737692 3.19046 -9.40486e-20)
(0.0270002 3.12792 0)
(0.708889 0.33394 0)
(0.618504 0.387951 0)
(1.07867 0.651279 -1.02425e-19)
(1.09851 0.791248 1.60393e-19)
(1.13474 0.545116 0)
(1.17974 0.494668 0)
(1.01803 0.0157949 -1.80216e-19)
(1.01549 0.0207843 2.2517e-19)
(1.0172 -0.0234121 0)
(1.01433 -0.0213885 0)
(1.00681 0.0021006 0)
(1.01005 0.00233623 0)
(1.00417 0.00261738 0)
(1.01072 0.00618988 0)
(1.00702 0.00589278 0)
(1.00588 0.00424046 0)
(-0.0843808 1.60035 0)
(-0.0482024 1.64937 0)
(-0.137128 1.54681 0)
(-0.0787365 1.47329 0)
(0.0346073 1.96974 0)
(0.104065 1.94918 -1.33732e-19)
(0.017897 1.95363 0)
(0.00817678 1.92061 6.67256e-20)
(-0.0202979 1.87186 -6.33441e-20)
(-0.0138243 1.77624 0)
(-0.0174701 1.77613 0)
(-0.0148759 1.77351 0)
(-0.00946277 1.74763 0)
(-0.0307036 1.82109 -1.81227e-20)
(-0.00297257 1.82034 2.45145e-20)
(-0.0108583 1.83376 3.17811e-20)
(0.001523 1.82537 0)
(-0.00715541 1.81905 -3.85171e-20)
(-0.00902399 1.81503 -2.27522e-20)
(-0.0221388 1.81772 1.42458e-20)
(-0.0120952 1.81872 -3.11336e-20)
(-0.0102719 1.8263 -3.85382e-20)
(1.01043 0.0166219 1.76411e-19)
(1.00938 0.00336213 -2.1966e-19)
(1.0048 0.0202243 -1.82065e-19)
(0.991138 0.0161471 2.32314e-19)
(1.03834 0.0179275 0)
(1.03904 0.0114504 0)
(1.06162 0.0417437 0)
(1.04752 0.0225696 0)
(1.05483 0.00973426 0)
(1.10205 0.0675898 0)
(1.07938 0.0447697 0)
(1.08844 0.0322275 0)
(-0.00750788 1.79489 -6.73363e-22)
(-0.0107742 1.7852 0)
(-0.00922629 1.78731 0)
(-0.00636704 1.80799 6.33157e-21)
(-0.00651171 1.808 -2.93638e-22)
(-0.0143502 1.78366 6.62436e-21)
(-0.0136005 1.78642 -6.71384e-21)
(-0.0140775 1.79347 0)
(-0.0115681 1.79431 0)
(-0.0123382 1.79484 0)
(-0.0160969 1.79406 0)
(-0.0167357 1.79421 0)
(0.351862 1.20851 3.69958e-19)
(0.408928 1.30981 1.37725e-19)
(0.517092 2.31615 -7.81881e-20)
(0.213403 2.12406 1.99344e-19)
(0.117973 2.43441 -3.60052e-20)
(1.01937 -0.0162575 0)
(1.01617 -0.00979168 0)
(1.01434 -0.0189215 0)
(1.00776 -0.00182851 0)
(1.0049 -0.00130461 0)
(1.0065 -0.00458838 0)
(1.01031 -0.00304177 0)
(1.01288 -0.00553383 0)
(1.02447 0.00773492 1.72021e-19)
(1.01778 0.0149169 -2.1578e-19)
(1.02445 0.000639678 -1.71256e-19)
(1.02084 -0.000120855 2.15373e-19)
(0.763435 1.25249 0)
(0.675443 1.33798 2.64702e-19)
(0.88466 1.17219 1.52833e-19)
(0.927662 1.1348 -2.03068e-19)
(1.10774 2.59813 -2.2528e-19)
(0.827612 0.0953248 1.15495e-19)
(1.11184 0.0933923 0)
(1.15682 0.171827 2.45254e-20)
(1.16265 0.14424 1.048e-21)
(0.965515 0.127727 0)
(0.171112 2.96696 3.45399e-20)
(0.129478 2.87497 -2.93549e-19)
(0.0434012 2.35801 1.99023e-19)
(0.118896 0.154943 -7.60515e-20)
(0.341776 3.43778 -1.82552e-19)
(0.199512 3.32878 0)
(0.231915 3.36996 2.37574e-19)
(0.268287 3.04528 -2.64742e-19)
(0.369425 3.20757 0)
(0.00814314 3.12005 1.12771e-20)
(0.0181988 3.12918 -1.46878e-19)
(0.0166583 3.12484 2.15414e-19)
(0.0387447 3.13995 0)
(0.0371395 3.15185 0)
(1.16724 2.6508 0)
(0.508411 0.8377 -8.64206e-20)
(1.03121 0.964522 -8.26884e-20)
(0.955281 1.06403 0)
(0.807661 0.949135 2.47031e-20)
(1.02893 0.873027 1.15769e-20)
(0.386627 0.47376 -2.22314e-19)
(0.733703 0.330515 -9.22744e-21)
(0.730373 0.276271 8.86707e-20)
(0.613169 0.437053 7.07837e-21)
(0.55628 0.417597 -2.92621e-19)
(0.706951 0.36739 0)
(0.6971 0.433757 1.44857e-19)
(0.709754 0.428635 0)
(0.651691 0.412583 0)
(0.666277 0.354623 0)
(0.731054 0.599173 5.12933e-20)
(1.1568 0.266457 9.46579e-21)
(1.16604 0.399115 0)
(1.19907 0.351779 0)
(0.780086 0.211975 1.31434e-19)
(0.778371 0.532136 -7.30632e-20)
(0.69424 0.515045 1.18629e-19)
(0.884768 0.395742 -1.11124e-19)
(1.02064 0.0179964 1.16045e-19)
(1.01981 0.0196824 -1.19955e-19)
(1.01579 0.0234203 0)
(1.02174 0.00626115 0)
(1.01506 -0.0163698 -1.0672e-19)
(1.00952 -0.00934415 1.06717e-19)
(1.03485 0.00408369 0)
(1.03156 0.00459058 0)
(1.01178 0.00268405 0)
(1.01515 0.0106468 0)
(1.02026 0.00242148 0)
(1.01581 0.00189468 0)
(-0.0415314 1.67842 0)
(-0.0273707 1.69226 0)
(-0.241173 1.56988 4.83989e-20)
(0.0794554 1.30133 8.25404e-20)
(-0.0979583 1.41474 1.56052e-19)
(0.0205195 1.31457 -2.64462e-19)
(-0.231451 1.53263 0)
(-0.286586 1.9664 1.80137e-20)
(-0.258128 1.96471 0)
(-0.0734395 2.46135 5.23003e-20)
(-0.0709019 2.46305 1.39814e-19)
(-0.331059 1.97255 -1.60201e-20)
(-0.100652 1.34804 8.4819e-20)
(-0.243344 1.50649 -6.77269e-20)
(-0.118649 1.34758 2.55292e-19)
(-0.287053 2.04538 0)
(-0.244122 2.08026 -1.64186e-19)
(-0.06144 1.84398 -1.6279e-20)
(-0.0178542 1.88276 0)
(-0.0428848 1.86881 6.3887e-20)
(-0.0532869 1.85333 0)
(-0.000629624 1.91332 -7.35815e-20)
(-0.00384208 1.90105 0)
(-0.023881 1.79972 -1.41217e-20)
(-0.0279555 1.80757 0)
(-0.0349664 1.78274 0)
(-0.0300625 1.79205 1.58589e-20)
(-0.0294589 1.84004 -1.66589e-21)
(-0.0259696 1.86434 7.47139e-20)
(-0.0241767 1.85249 5.15329e-22)
(-0.0152853 1.80571 1.28768e-20)
(-0.0181233 1.80588 7.80672e-21)
(-0.0231499 1.77794 0)
(-0.0236195 1.77857 0)
(-0.0570292 1.82693 3.73776e-20)
(-0.0479314 1.78544 2.54669e-20)
(-0.0488251 1.804 -3.65096e-20)
(-0.0794398 1.84082 0)
(-0.0114413 1.79868 -2.16052e-20)
(-0.00996585 1.80825 9.84645e-21)
(-0.00975367 1.80742 -3.19402e-21)
(-0.0136187 1.80621 -1.55725e-20)
(-0.0120722 1.81104 -5.19498e-21)
(-0.0131082 1.81316 2.568e-20)
(1.02088 0.000858111 -1.14846e-19)
(1.01582 0.00873106 1.16367e-19)
(1.01623 0.00225253 0)
(0.992943 0.0460677 1.65519e-19)
(0.989922 0.0314454 -1.93864e-19)
(0.963062 0.0227528 2.24738e-19)
(0.993583 0.0808031 -2.1691e-20)
(1.02557 0.0133215 0)
(1.03177 0.0118585 9.91469e-20)
(1.03084 0.0106528 -9.83619e-20)
(1.03461 0.0413671 -5.43486e-21)
(1.03721 0.0270328 4.78917e-20)
(1.02457 0.0501117 0)
(1.01767 0.0429539 -1.77702e-20)
(1.01704 0.0218505 0)
(1.01687 0.0186915 0)
(1.03469 0.00585913 0)
(1.02833 0.00265944 0)
(1.02389 0.0222511 3.67289e-20)
(1.02648 0.0157119 -8.30916e-20)
(1.02447 0.029559 -3.76517e-20)
(1.02363 0.0308337 -4.32398e-20)
(1.02192 0.0504812 7.79881e-20)
(1.06192 0.0463113 0)
(1.05677 0.0861064 0)
(-0.0118884 1.79843 -9.09728e-21)
(-0.0123882 1.7899 -7.67653e-22)
(-0.0128567 1.78874 0)
(-0.00927822 1.80102 9.31712e-21)
(-0.00837949 1.79738 1.37136e-21)
(-0.00864124 1.79958 -1.42938e-21)
(-0.0099778 1.81438 2.02484e-20)
(-0.00975443 1.81044 -1.16581e-21)
(-0.0113863 1.80986 5.65744e-21)
(-0.00761649 1.81162 -9.92088e-21)
(-0.00929303 1.81158 1.18334e-20)
(-0.0156239 1.7861 2.15983e-22)
(-0.0156049 1.78546 9.68954e-21)
(0.318603 1.09278 -2.0781e-19)
(0.203585 1.45331 -3.45297e-19)
(0.647639 1.32492 -2.56636e-19)
(0.536791 1.31414 -1.31042e-19)
(0.535408 1.37019 0)
(0.56468 2.33513 5.91002e-20)
(0.649617 2.33516 9.756e-20)
(0.235712 2.19447 4.60753e-20)
(0.155289 2.52405 -1.2615e-19)
(0.214941 2.53729 1.11506e-19)
(0.465155 2.32672 0)
(0.38487 2.17822 -1.84843e-19)
(0.064509 2.02504 3.42944e-19)
(0.169549 2.12773 -2.89425e-20)
(0.198103 1.97624 -4.53818e-19)
(0.879227 2.344 5.95699e-20)
(0.847403 2.38759 0)
(1.00997 -0.00115089 3.87727e-21)
(1.01331 -0.0074227 -3.23994e-21)
(1.01653 -0.0098374 -5.72373e-20)
(1.01693 -0.0108186 5.79148e-20)
(1.01343 -0.00206365 0)
(0.667849 1.24479 0)
(0.663061 1.17782 0)
(0.762137 1.04565 0)
(0.643952 1.12727 0)
(1.13397 2.61535 2.64925e-20)
(1.01568 2.3201 0)
(0.815644 2.18778 2.89677e-22)
(0.919641 2.50343 0)
(0.978022 2.55143 1.122e-20)
(0.984071 2.50528 -7.36114e-21)
(0.834463 0.147015 0)
(0.799197 0.164111 3.31083e-20)
(0.899049 0.12067 1.70679e-19)
(0.855651 0.10587 -6.83583e-20)
(0.85519 0.068558 -2.05443e-19)
(1.01583 0.215854 -1.01332e-19)
(0.952653 0.258716 -6.22355e-21)
(0.899009 0.241143 1.48663e-19)
(0.965926 0.202934 1.14632e-19)
(0.920679 0.160619 -2.13583e-19)
(0.892635 0.170146 2.72516e-20)
(0.917111 0.224273 -5.33037e-20)
(0.898826 0.192719 0)
(0.967941 0.163854 1.02306e-19)
(1.00098 0.168669 0)
(0.994911 0.202225 0)
(1.0422 0.0961942 3.38702e-20)
(1.02185 0.154763 -5.14202e-21)
(1.01047 0.213244 -1.69693e-20)
(1.0463 0.18584 0)
(1.00961 0.0251654 8.83141e-20)
(1.01445 0.0430991 1.03738e-19)
(1.01468 0.0301038 -8.6671e-20)
(1.00865 0.0479253 -6.99297e-20)
(0.999068 0.0505371 -1.16882e-19)
(0.969898 0.127567 0)
(0.984464 0.0807118 0)
(0.966883 0.0492408 -8.10581e-20)
(0.928909 0.0557841 3.37925e-20)
(0.997217 0.0757488 9.89287e-20)
(1.01288 0.093911 -1.01101e-19)
(1.02676 0.122522 8.97699e-20)
(0.996166 0.122847 0)
(1.02288 0.0823604 0)
(1.01299 0.0682807 -4.24078e-20)
(1.00965 0.0731277 -7.93224e-20)
(0.496151 1.1213 -3.51881e-20)
(0.575804 1.56814 6.09872e-20)
(1.11229 2.79348 5.24782e-20)
(1.21821 3.10349 -3.53626e-20)
(1.20999 2.72815 2.57232e-19)
(1.25056 2.7272 -1.57218e-19)
(1.12663 2.34247 1.05094e-20)
(1.20009 2.99929 9.03725e-20)
(1.21356 2.96785 -1.01062e-19)
(1.22904 3.25784 -1.40725e-19)
(1.35125 2.99423 1.64947e-19)
(1.29713 2.90861 0)
(0.51028 0.837922 -4.49457e-21)
(0.135359 1.28799 1.59146e-19)
(0.5236 0.553383 1.48325e-19)
(0.324349 0.315749 1.55455e-19)
(0.555398 0.45987 1.64114e-19)
(0.557317 0.497604 -2.55083e-19)
(0.540503 0.54294 2.08187e-19)
(0.511087 0.484392 -8.66487e-20)
(0.476873 0.425684 1.97569e-19)
(0.779425 0.260834 -7.29133e-20)
(0.747904 0.29255 0)
(0.745853 0.254095 4.69354e-21)
(0.684633 0.517955 7.38126e-20)
(0.670188 0.482226 -2.74418e-19)
(0.598006 0.504582 6.92528e-21)
(0.622232 0.48155 0)
(0.612084 0.725379 5.78969e-20)
(0.776626 0.780699 1.47965e-20)
(0.70355 0.847743 -2.09948e-20)
(0.814215 0.805656 -5.50942e-21)
(0.870542 0.829607 6.59723e-21)
(0.874506 0.841639 -6.77662e-21)
(0.782442 0.609484 -8.92233e-20)
(0.857212 0.698593 5.1362e-21)
(0.929234 0.697447 0)
(0.906171 0.657073 -8.16311e-21)
(0.96986 0.280738 2.55952e-20)
(1.05638 0.269059 6.71356e-21)
(0.999644 0.25211 4.07389e-20)
(0.9422 0.324488 -5.80144e-20)
(0.990362 0.39926 0)
(1.04211 0.382652 0)
(0.87566 0.325387 3.8332e-21)
(0.844892 0.2814 0)
(0.845171 0.244675 7.96322e-20)
(0.890228 0.248442 -2.37502e-21)
(0.872818 0.398684 3.04246e-19)
(0.825064 0.468424 7.73978e-20)
(0.824336 0.430065 -9.92848e-20)
(0.769432 0.425663 1.06577e-19)
(0.75685 0.431069 7.34602e-20)
(0.743893 0.420843 -7.14078e-20)
(1.0268 -0.00307338 9.29835e-20)
(1.02949 -0.00652407 0)
(1.02807 -0.0108993 6.24244e-20)
(1.0238 -0.0127906 -1.39288e-19)
(1.03724 0.0013778 6.76234e-20)
(1.03124 0.00901888 -1.42914e-19)
(1.03002 0.00976025 0)
(1.0242 0.0115482 -2.9707e-20)
(1.0257 0.00808227 7.44378e-20)
(1.01953 0.0138736 -3.80766e-20)
(1.02165 0.0147296 2.79849e-20)
(-0.0241193 1.75047 0)
(-0.0425741 1.77797 0)
(-0.0295744 1.7179 0)
(-0.0181899 1.72046 0)
(-0.14509 1.72268 -1.27945e-20)
(-0.14726 1.64631 -7.7706e-22)
(-0.216257 1.92165 -7.51897e-21)
(-0.282514 1.72459 -3.90782e-20)
(-0.0678791 1.78777 -1.68599e-20)
(-0.0835691 1.78279 1.18711e-20)
(-0.1069 1.72311 -1.40911e-22)
(-0.0867093 1.7476 2.67518e-21)
(-0.0608889 1.76098 2.61115e-22)
(-0.0549263 1.77013 -1.5673e-21)
(-0.0561152 1.90779 -6.76844e-20)
(-0.0545724 1.95104 0)
(-0.139124 1.98396 3.81737e-20)
(-0.189782 1.94033 1.81723e-20)
(-0.222587 2.23831 -8.93571e-21)
(-0.0591258 2.22149 0)
(-0.0813396 2.28396 -1.35207e-19)
(-0.0713079 2.38941 9.65801e-20)
(-0.191948 2.13944 -6.49889e-20)
(-0.160558 2.05942 2.57963e-20)
(-0.0827512 2.09767 0)
(-0.0482138 1.81867 -4.73153e-20)
(-0.0397088 1.82171 -6.37953e-20)
(-0.0399104 1.82193 0)
(-0.0489027 1.83545 -2.25163e-21)
(-0.0530145 1.83307 2.47099e-20)
(-0.0173546 1.79479 2.20685e-21)
(-0.0201925 1.79099 -3.55484e-20)
(-0.0240141 1.79392 7.66037e-21)
(-0.0199622 1.79909 1.4706e-20)
(-0.0178036 1.8007 0)
(-0.0246224 1.79245 0)
(-0.0222918 1.78898 1.10153e-20)
(-0.0242578 1.78975 -3.31771e-21)
(-0.0257424 1.79075 0)
(-0.0246636 1.78267 8.53179e-21)
(-0.0214193 1.78651 -1.66421e-20)
(1.02772 0.0181955 0)
(1.0293 0.0169719 -8.99186e-21)
(1.02889 0.0161684 -6.67268e-20)
(1.02787 0.017544 0)
(1.02769 0.0192636 0)
(1.03094 0.0102374 -1.86484e-21)
(1.0313 0.0102961 1.09573e-19)
(1.02705 0.0080996 1.3522e-19)
(1.02732 0.00538246 0)
(1.02137 0.00448846 0)
(1.02413 0.0149432 6.74171e-20)
(1.01953 0.0128127 0)
(1.02083 0.0107995 0)
(-0.0129721 1.80002 0)
(-0.0155016 1.78549 7.77003e-22)
(-0.0151177 1.79093 4.98812e-21)
(-0.0223427 1.79078 0)
(-0.0173494 1.78832 6.80843e-21)
(-0.015429 1.78781 -3.30173e-21)
(-0.0182149 1.78789 0)
(0.681611 1.91692 0)
(0.331805 1.50569 5.5632e-19)
(0.282444 2.11018 0)
(0.566305 1.112 -5.91146e-19)
(0.537714 1.15068 0)
(0.52978 1.13911 2.45202e-19)
(1.01738 2.66996 -1.53116e-21)
(0.913937 2.36597 -7.21393e-20)
(0.80869 2.05163 2.07233e-19)
(0.851563 2.37664 4.04804e-20)
(0.926308 2.53201 0)
(0.95225 2.48735 0)
(0.861408 2.35002 0)
(0.844366 2.31858 -1.44301e-19)
(0.683801 2.59248 -8.27815e-21)
(0.93366 2.5104 2.43851e-23)
(0.934998 2.48071 -1.92122e-23)
(0.658581 2.3843 0)
(0.79179 2.39681 0)
(0.755525 2.36791 -9.43305e-20)
(0.871023 2.58267 0)
(0.587097 1.08661 0)
(0.473958 0.888058 1.99108e-20)
(0.532277 0.915298 2.24703e-22)
(0.475049 1.02321 0)
(0.510353 0.980323 -3.07688e-20)
(0.724795 0.871138 8.22004e-21)
(0.77565 0.976529 0)
(0.747539 0.948183 -2.95656e-20)
(0.628088 1.01294 0)
(0.621508 0.916457 0)
(1.12402 2.77985 1.54503e-20)
(1.0981 2.85258 3.43366e-20)
(0.866603 2.38917 -8.91757e-20)
(0.822554 2.36711 3.68221e-21)
(1.08528 2.73611 0)
(1.05117 2.69236 -5.43518e-21)
(1.03402 2.45024 -3.74835e-20)
(0.9174 2.1536 -1.09427e-20)
(0.558473 1.46125 0)
(0.495238 1.12531 3.07981e-20)
(0.597486 1.21636 0)
(0.837643 0.211407 0)
(0.808541 0.184056 0)
(0.773299 0.183875 0)
(0.83628 0.211775 -1.25963e-19)
(0.792159 0.213372 7.72989e-20)
(0.929763 0.0532322 -6.91887e-20)
(0.937802 0.100127 0)
(0.916321 0.10308 3.17463e-20)
(0.8831 0.0727638 1.30308e-19)
(0.886119 0.0551685 -8.0336e-20)
(1.16908 3.38987 -4.20865e-19)
(1.21869 3.30757 0)
(1.13965 3.40366 -7.96271e-19)
(0.643448 3.56084 7.02449e-19)
(0.859979 3.12326 1.55775e-19)
(0.493808 0.843929 8.31932e-20)
(0.406346 0.824765 0)
(0.330639 0.589278 -3.18402e-20)
(0.413277 0.683129 1.41803e-19)
(0.514627 0.562015 -4.38272e-20)
(0.503002 0.572068 4.92278e-20)
(0.609995 0.536254 1.06667e-19)
(0.638992 0.539384 0)
(0.589849 0.621479 0)
(0.552833 0.562553 0)
(0.916469 0.575486 -1.83445e-20)
(0.826114 0.512964 -7.42245e-20)
(0.857943 0.551098 3.80441e-20)
(0.889721 0.496904 -5.49797e-20)
(1.01017 0.463849 0)
(0.999169 0.540979 -3.30688e-21)
(0.810204 0.370151 -1.59255e-19)
(0.821685 0.354487 -1.80164e-19)
(0.795895 0.377577 1.24306e-19)
(0.800146 0.340144 -1.40752e-19)
(0.83516 0.296712 -1.04917e-19)
(0.809106 0.295664 1.28905e-19)
(1.03848 0.00280719 -7.04782e-20)
(1.03907 0.00380265 1.45115e-19)
(1.02961 0.00264776 8.80379e-20)
(1.03366 0.0085404 -1.05908e-19)
(1.02895 0.0166115 0)
(1.0325 0.0119336 -1.72799e-19)
(-0.0763156 1.8374 1.18644e-20)
(-0.0892138 1.84459 0)
(-0.119288 1.87488 5.46561e-20)
(-0.147298 1.92454 -4.60784e-20)
(-0.190765 1.89825 1.3854e-20)
(-0.15306 1.87936 0)
(-0.0154313 1.80265 0)
(-0.0229997 1.79491 -3.65215e-21)
(-0.021752 1.79067 3.27603e-21)
(-0.0203578 1.78962 8.44945e-22)
(-0.0167455 1.79921 -6.64843e-21)
(-0.0153338 1.80211 4.20503e-21)
(0.704079 1.44215 1.99228e-19)
(0.730285 1.55661 -2.08032e-19)
(0.674729 1.22198 2.38784e-19)
(0.854338 1.45274 -1.56594e-20)
(0.674944 1.24051 0)
(0.631568 1.20114 2.37016e-19)
(0.618602 1.2692 -2.28117e-19)
(0.632072 1.16052 -2.32903e-19)
(0.721058 1.2185 0)
(0.657466 1.25987 0)
(0.705012 2.58636 1.24938e-20)
(0.719781 2.55082 1.45801e-19)
(0.793343 2.59242 -9.92924e-20)
(0.602126 2.61651 -5.10255e-20)
(0.439832 2.74846 1.48864e-20)
(0.368283 2.72533 -9.05595e-20)
(0.94652 2.27236 -1.15991e-19)
(0.97127 2.32257 0)
(0.837249 2.04711 -1.25501e-19)
(1.02774 2.67059 0)
(1.00198 2.64556 0)
(0.620875 2.28453 9.53216e-20)
(1.01508 3.173 1.95914e-19)
(0.891546 3.03346 -1.56147e-19)
(0.310087 0.964774 0)
(0.35596 0.829251 -5.93926e-20)
(0.485448 0.752591 -2.02887e-20)
(0.45094 2.02433 0)
(0.48776 2.79496 -1.10238e-19)
(0.454281 2.57672 0)
(0.624195 0.672695 -1.18976e-19)
(0.695885 0.685694 1.49885e-19)
(0.737027 0.618199 -1.44453e-19)
(0.605709 0.636924 -1.81717e-20)
(0.661865 0.593362 -7.44697e-20)
(1.00299 2.7892 -1.47902e-19)
(1.02049 2.85791 1.4641e-19)
(0.676369 2.22105 7.20794e-21)
(0.578344 1.74984 -1.69042e-20)
(0.706742 1.97985 8.3304e-20)
(0.977469 2.51876 -1.63163e-20)
(0.972742 2.53823 -9.97654e-20)
(0.695788 1.93661 -4.88451e-21)
(0.459905 1.38854 -4.95714e-20)
)
;

boundaryField
{
    wall-4
    {
        type            noSlip;
    }
    velocity-inlet-5
    {
        type            fixedValue;
        value           uniform (1 0 0);
    }
    velocity-inlet-6
    {
        type            fixedValue;
        value           uniform (0 3 0);
    }
    pressure-outlet-7
    {
        type            zeroGradient;
    }
    wall-8
    {
        type            noSlip;
    }
    frontAndBackPlanes
    {
        type            empty;
    }
}


// ************************************************************************* //
